/home/hsh/learnmd/study/1/dpgen/CsPbBr3/lammps/redao/dp/pnma/20,50,80-3-3/10-3-3pnma.lmp (written by ASE) 

1800 	 atoms 
3  atom types
0.0      81.010800000000003  xlo xhi
0.0      25.361499999999999  ylo yhi
0.0      35.636699999999998  zlo zhi


Atoms 

     1   1      4.2085110600000002      3.7182495149999997      2.9696062109999999
     2   1              0.15797106     0.50849807499999999      8.9091749999999994
     3   1      7.9431089400000001      7.9452507199999998      2.9696062109999999
     4   1      3.8925689400000003              4.73549928      8.9091749999999994
     5   2      4.0505400000000007                       0             5.939568789
     6   2                       0      4.2270012050000005                       0
     7   2                       0      4.2270012050000005             5.939568789
     8   2      4.0505400000000007                       0                       0
     9   3      4.5341744760000005      8.4009968749999988      8.9091749999999994
    10   3     0.48363447599999998      4.2797531249999992      2.9696062109999999
    11   3      6.5035470240000004      1.6994741149999997     0.37667991900000003
    12   3      1.5975329760000001      6.7545282950000001      11.502457658999999
    13   3      2.4530070240000001              2.52752709      11.502457658999999
    14   3      5.6480729760000017      5.9262217049999997     0.37667991900000003
    15   3      2.4530070240000001              2.52752709      6.3158923409999996
    16   3      5.6480729760000017      5.9262217049999997      5.5628888699999992
    17   3      1.5975329760000001      6.7545282950000001      6.3158923409999996
    18   3      6.5035470240000004      1.6994741149999997      5.5628888699999992
    19   3      7.6174455240000016              4.17399567      8.9091749999999994
    20   3             3.566905524    0.053005534999999986      2.9696062109999999
    21   1      12.309591060000001      3.7182495149999997      2.9696062109999999
    22   1      8.2590510600000009     0.50849807499999999      8.9091749999999994
    23   1      16.044188940000002      7.9452507199999998      2.9696062109999999
    24   1      11.993648940000002              4.73549928      8.9091749999999994
    25   2      12.151619999999999                       0             5.939568789
    26   2      8.1010800000000014      4.2270012050000005                       0
    27   2      8.1010800000000014      4.2270012050000005             5.939568789
    28   2      12.151619999999999                       0                       0
    29   3            12.635254476      8.4009968749999988      8.9091749999999994
    30   3      8.5847144760000003      4.2797531249999992      2.9696062109999999
    31   3      14.604627024000003      1.6994741149999997     0.37667991900000003
    32   3      9.6986129759999997      6.7545282950000001      11.502457658999999
    33   3      10.554087024000001              2.52752709      11.502457658999999
    34   3      13.749152976000001      5.9262217049999997     0.37667991900000003
    35   3      10.554087024000001              2.52752709      6.3158923409999996
    36   3      13.749152976000001      5.9262217049999997      5.5628888699999992
    37   3      9.6986129759999997      6.7545282950000001      6.3158923409999996
    38   3      14.604627024000003      1.6994741149999997      5.5628888699999992
    39   3      15.718525524000004              4.17399567      8.9091749999999994
    40   3      11.667985524000002    0.053005534999999986      2.9696062109999999
    41   1      20.410671060000002      3.7182495149999997      2.9696062109999999
    42   1      16.360131060000001     0.50849807499999999      8.9091749999999994
    43   1      24.145268940000005      7.9452507199999998      2.9696062109999999
    44   1             20.09472894              4.73549928      8.9091749999999994
    45   2      20.252700000000001                       0             5.939568789
    46   2      16.202160000000003      4.2270012050000005                       0
    47   2      16.202160000000003      4.2270012050000005             5.939568789
    48   2      20.252700000000001                       0                       0
    49   3            20.736334476      8.4009968749999988      8.9091749999999994
    50   3      16.685794475999998      4.2797531249999992      2.9696062109999999
    51   3      22.705707023999999      1.6994741149999997     0.37667991900000003
    52   3      17.799692975999999      6.7545282950000001      11.502457658999999
    53   3      18.655167024000001              2.52752709      11.502457658999999
    54   3      21.850232976000001      5.9262217049999997     0.37667991900000003
    55   3      18.655167024000001              2.52752709      6.3158923409999996
    56   3      21.850232976000001      5.9262217049999997      5.5628888699999992
    57   3      17.799692975999999      6.7545282950000001      6.3158923409999996
    58   3      22.705707023999999      1.6994741149999997      5.5628888699999992
    59   3      23.819605524000007              4.17399567      8.9091749999999994
    60   3      19.769065524000002    0.053005534999999986      2.9696062109999999
    61   1      28.511751060000005      3.7182495149999997      2.9696062109999999
    62   1             24.46121106     0.50849807499999999      8.9091749999999994
    63   1      32.246348940000004      7.9452507199999998      2.9696062109999999
    64   1      28.195808940000003              4.73549928      8.9091749999999994
    65   2      28.353780000000004                       0             5.939568789
    66   2      24.303239999999999      4.2270012050000005                       0
    67   2      24.303239999999999      4.2270012050000005             5.939568789
    68   2      28.353780000000004                       0                       0
    69   3      28.837414476000006      8.4009968749999988      8.9091749999999994
    70   3      24.786874476000001      4.2797531249999992      2.9696062109999999
    71   3      30.806787024000002      1.6994741149999997     0.37667991900000003
    72   3      25.900772976000006      6.7545282950000001      11.502457658999999
    73   3      26.756247024000007              2.52752709      11.502457658999999
    74   3      29.951312976000001      5.9262217049999997     0.37667991900000003
    75   3      26.756247024000007              2.52752709      6.3158923409999996
    76   3      29.951312976000001      5.9262217049999997      5.5628888699999992
    77   3      25.900772976000006      6.7545282950000001      6.3158923409999996
    78   3      30.806787024000002      1.6994741149999997      5.5628888699999992
    79   3            31.920685524              4.17399567      8.9091749999999994
    80   3      27.870145524000002    0.053005534999999986      2.9696062109999999
    81   1      36.612831060000005      3.7182495149999997      2.9696062109999999
    82   1      32.562291060000007     0.50849807499999999      8.9091749999999994
    83   1             40.34742894      7.9452507199999998      2.9696062109999999
    84   1      36.296888940000009              4.73549928      8.9091749999999994
    85   2      36.454860000000004                       0             5.939568789
    86   2      32.404320000000006      4.2270012050000005                       0
    87   2      32.404320000000006      4.2270012050000005             5.939568789
    88   2      36.454860000000004                       0                       0
    89   3      36.938494476000002      8.4009968749999988      8.9091749999999994
    90   3      32.887954476000004      4.2797531249999992      2.9696062109999999
    91   3      38.907867023999998      1.6994741149999997     0.37667991900000003
    92   3      34.001852976000002      6.7545282950000001      11.502457658999999
    93   3            34.857327024              2.52752709      11.502457658999999
    94   3            38.052392976      5.9262217049999997     0.37667991900000003
    95   3            34.857327024              2.52752709      6.3158923409999996
    96   3            38.052392976      5.9262217049999997      5.5628888699999992
    97   3      34.001852976000002      6.7545282950000001      6.3158923409999996
    98   3      38.907867023999998      1.6994741149999997      5.5628888699999992
    99   3      40.021765524000003              4.17399567      8.9091749999999994
   100   3      35.971225523999998    0.053005534999999986      2.9696062109999999
   101   1      44.713911060000015      3.7182495149999997      2.9696062109999999
   102   1      40.663371060000003     0.50849807499999999      8.9091749999999994
   103   1      48.448508939999996      7.9452507199999998      2.9696062109999999
   104   1      44.397968940000005              4.73549928      8.9091749999999994
   105   2      44.555940000000007                       0             5.939568789
   106   2      40.505400000000002      4.2270012050000005                       0
   107   2      40.505400000000002      4.2270012050000005             5.939568789
   108   2      44.555940000000007                       0                       0
   109   3      45.039574475999999      8.4009968749999988      8.9091749999999994
   110   3      40.989034476000015      4.2797531249999992      2.9696062109999999
   111   3      47.008947024000001      1.6994741149999997     0.37667991900000003
   112   3      42.102932975999998      6.7545282950000001      11.502457658999999
   113   3       42.95840702400001              2.52752709      11.502457658999999
   114   3      46.153472976000003      5.9262217049999997     0.37667991900000003
   115   3       42.95840702400001              2.52752709      6.3158923409999996
   116   3      46.153472976000003      5.9262217049999997      5.5628888699999992
   117   3      42.102932975999998      6.7545282950000001      6.3158923409999996
   118   3      47.008947024000001      1.6994741149999997      5.5628888699999992
   119   3      48.122845523999999              4.17399567      8.9091749999999994
   120   3      44.072305524000001    0.053005534999999986      2.9696062109999999
   121   1      52.814991060000004      3.7182495149999997      2.9696062109999999
   122   1      48.764451059999999     0.50849807499999999      8.9091749999999994
   123   1      56.549588940000007      7.9452507199999998      2.9696062109999999
   124   1      52.499048940000002              4.73549928      8.9091749999999994
   125   2      52.657020000000003                       0             5.939568789
   126   2      48.606479999999998      4.2270012050000005                       0
   127   2      48.606479999999998      4.2270012050000005             5.939568789
   128   2      52.657020000000003                       0                       0
   129   3      53.140654476000016      8.4009968749999988      8.9091749999999994
   130   3      49.090114476000004      4.2797531249999992      2.9696062109999999
   131   3      55.110027024000011      1.6994741149999997     0.37667991900000003
   132   3      50.204012976000016      6.7545282950000001      11.502457658999999
   133   3      51.059487023999999              2.52752709      11.502457658999999
   134   3      54.254552975999999      5.9262217049999997     0.37667991900000003
   135   3      51.059487023999999              2.52752709      6.3158923409999996
   136   3      54.254552975999999      5.9262217049999997      5.5628888699999992
   137   3      50.204012976000016      6.7545282950000001      6.3158923409999996
   138   3      55.110027024000011      1.6994741149999997      5.5628888699999992
   139   3      56.223925524000002              4.17399567      8.9091749999999994
   140   3      52.173385524000011    0.053005534999999986      2.9696062109999999
   141   1             60.91607106      3.7182495149999997      2.9696062109999999
   142   1      56.865531060000009     0.50849807499999999      8.9091749999999994
   143   1      64.650668940000003      7.9452507199999998      2.9696062109999999
   144   1      60.600128940000012              4.73549928      8.9091749999999994
   145   2      60.758099999999999                       0             5.939568789
   146   2      56.707560000000008      4.2270012050000005                       0
   147   2      56.707560000000008      4.2270012050000005             5.939568789
   148   2      60.758099999999999                       0                       0
   149   3      61.241734476000005      8.4009968749999988      8.9091749999999994
   150   3            57.191194476      4.2797531249999992      2.9696062109999999
   151   3            63.211107024      1.6994741149999997     0.37667991900000003
   152   3      58.305092976000005      6.7545282950000001      11.502457658999999
   153   3      59.160567024000002              2.52752709      11.502457658999999
   154   3       62.35563297600001      5.9262217049999997     0.37667991900000003
   155   3      59.160567024000002              2.52752709      6.3158923409999996
   156   3       62.35563297600001      5.9262217049999997      5.5628888699999992
   157   3      58.305092976000005      6.7545282950000001      6.3158923409999996
   158   3            63.211107024      1.6994741149999997      5.5628888699999992
   159   3      64.325005524000019              4.17399567      8.9091749999999994
   160   3            60.274465524    0.053005534999999986      2.9696062109999999
   161   1      69.017151060000018      3.7182495149999997      2.9696062109999999
   162   1      64.966611060000005     0.50849807499999999      8.9091749999999994
   163   1      72.751748939999999      7.9452507199999998      2.9696062109999999
   164   1      68.701208940000015              4.73549928      8.9091749999999994
   165   2      68.859179999999995                       0             5.939568789
   166   2      64.808640000000011      4.2270012050000005                       0
   167   2      64.808640000000011      4.2270012050000005             5.939568789
   168   2      68.859179999999995                       0                       0
   169   3      69.342814476000001      8.4009968749999988      8.9091749999999994
   170   3      65.292274476000003      4.2797531249999992      2.9696062109999999
   171   3      71.312187023999996      1.6994741149999997     0.37667991900000003
   172   3      66.406172976000008      6.7545282950000001      11.502457658999999
   173   3      67.261647023999998              2.52752709      11.502457658999999
   174   3      70.456712976000006      5.9262217049999997     0.37667991900000003
   175   3      67.261647023999998              2.52752709      6.3158923409999996
   176   3      70.456712976000006      5.9262217049999997      5.5628888699999992
   177   3      66.406172976000008      6.7545282950000001      6.3158923409999996
   178   3      71.312187023999996      1.6994741149999997      5.5628888699999992
   179   3      72.426085524000001              4.17399567      8.9091749999999994
   180   3      68.375545524000003    0.053005534999999986      2.9696062109999999
   181   1      77.118231059999999      3.7182495149999997      2.9696062109999999
   182   1      73.067691060000001     0.50849807499999999      8.9091749999999994
   183   1      80.852828940000009      7.9452507199999998      2.9696062109999999
   184   1      76.802288939999997              4.73549928      8.9091749999999994
   185   2      76.960260000000005                       0             5.939568789
   186   2      72.909720000000007      4.2270012050000005                       0
   187   2      72.909720000000007      4.2270012050000005             5.939568789
   188   2      76.960260000000005                       0                       0
   189   3      77.443894475999997      8.4009968749999988      8.9091749999999994
   190   3      73.393354476000013      4.2797531249999992      2.9696062109999999
   191   3      79.413267024000021      1.6994741149999997     0.37667991900000003
   192   3      74.507252976000004      6.7545282950000001      11.502457658999999
   193   3      75.362727024000009              2.52752709      11.502457658999999
   194   3      78.557792976000002      5.9262217049999997     0.37667991900000003
   195   3      75.362727024000009              2.52752709      6.3158923409999996
   196   3      78.557792976000002      5.9262217049999997      5.5628888699999992
   197   3      74.507252976000004      6.7545282950000001      6.3158923409999996
   198   3      79.413267024000021      1.6994741149999997      5.5628888699999992
   199   3      80.527165523999997              4.17399567      8.9091749999999994
   200   3      76.476625523999999    0.053005534999999986      2.9696062109999999
   201   1      4.2085110600000002      12.172251924999998      2.9696062109999999
   202   1              0.15797106      8.9625004849999996      8.9091749999999994
   203   1      7.9431089400000001            16.398999515      2.9696062109999999
   204   1      3.8925689400000003            13.189248075      8.9091749999999994
   205   2      4.0505400000000007       8.453748795000001             5.939568789
   206   2                       0      12.680749999999998                       0
   207   2                       0      12.680749999999998             5.939568789
   208   2      4.0505400000000007       8.453748795000001                       0
   209   3      4.5341744760000005             16.85474567      8.9091749999999994
   210   3     0.48363447599999998            12.733755535      2.9696062109999999
   211   3      6.5035470240000004      10.153222909999998     0.37667991900000003
   212   3      1.5975329760000001      15.208277089999999      11.502457658999999
   213   3      2.4530070240000001      10.981275884999999      11.502457658999999
   214   3      5.6480729760000017      14.380224115000001     0.37667991900000003
   215   3      2.4530070240000001      10.981275884999999      6.3158923409999996
   216   3      5.6480729760000017      14.380224115000001      5.5628888699999992
   217   3      1.5975329760000001      15.208277089999999      6.3158923409999996
   218   3      6.5035470240000004      10.153222909999998      5.5628888699999992
   219   3      7.6174455240000016      12.627744465000001      8.9091749999999994
   220   3             3.566905524      8.5067543299999997      2.9696062109999999
   221   1      12.309591060000001      12.172251924999998      2.9696062109999999
   222   1      8.2590510600000009      8.9625004849999996      8.9091749999999994
   223   1      16.044188940000002            16.398999515      2.9696062109999999
   224   1      11.993648940000002            13.189248075      8.9091749999999994
   225   2      12.151619999999999       8.453748795000001             5.939568789
   226   2      8.1010800000000014      12.680749999999998                       0
   227   2      8.1010800000000014      12.680749999999998             5.939568789
   228   2      12.151619999999999       8.453748795000001                       0
   229   3            12.635254476             16.85474567      8.9091749999999994
   230   3      8.5847144760000003            12.733755535      2.9696062109999999
   231   3      14.604627024000003      10.153222909999998     0.37667991900000003
   232   3      9.6986129759999997      15.208277089999999      11.502457658999999
   233   3      10.554087024000001      10.981275884999999      11.502457658999999
   234   3      13.749152976000001      14.380224115000001     0.37667991900000003
   235   3      10.554087024000001      10.981275884999999      6.3158923409999996
   236   3      13.749152976000001      14.380224115000001      5.5628888699999992
   237   3      9.6986129759999997      15.208277089999999      6.3158923409999996
   238   3      14.604627024000003      10.153222909999998      5.5628888699999992
   239   3      15.718525524000004      12.627744465000001      8.9091749999999994
   240   3      11.667985524000002      8.5067543299999997      2.9696062109999999
   241   1      20.410671060000002      12.172251924999998      2.9696062109999999
   242   1      16.360131060000001      8.9625004849999996      8.9091749999999994
   243   1      24.145268940000005            16.398999515      2.9696062109999999
   244   1             20.09472894            13.189248075      8.9091749999999994
   245   2      20.252700000000001       8.453748795000001             5.939568789
   246   2      16.202160000000003      12.680749999999998                       0
   247   2      16.202160000000003      12.680749999999998             5.939568789
   248   2      20.252700000000001       8.453748795000001                       0
   249   3            20.736334476             16.85474567      8.9091749999999994
   250   3      16.685794475999998            12.733755535      2.9696062109999999
   251   3      22.705707023999999      10.153222909999998     0.37667991900000003
   252   3      17.799692975999999      15.208277089999999      11.502457658999999
   253   3      18.655167024000001      10.981275884999999      11.502457658999999
   254   3      21.850232976000001      14.380224115000001     0.37667991900000003
   255   3      18.655167024000001      10.981275884999999      6.3158923409999996
   256   3      21.850232976000001      14.380224115000001      5.5628888699999992
   257   3      17.799692975999999      15.208277089999999      6.3158923409999996
   258   3      22.705707023999999      10.153222909999998      5.5628888699999992
   259   3      23.819605524000007      12.627744465000001      8.9091749999999994
   260   3      19.769065524000002      8.5067543299999997      2.9696062109999999
   261   1      28.511751060000005      12.172251924999998      2.9696062109999999
   262   1             24.46121106      8.9625004849999996      8.9091749999999994
   263   1      32.246348940000004            16.398999515      2.9696062109999999
   264   1      28.195808940000003            13.189248075      8.9091749999999994
   265   2      28.353780000000004       8.453748795000001             5.939568789
   266   2      24.303239999999999      12.680749999999998                       0
   267   2      24.303239999999999      12.680749999999998             5.939568789
   268   2      28.353780000000004       8.453748795000001                       0
   269   3      28.837414476000006             16.85474567      8.9091749999999994
   270   3      24.786874476000001            12.733755535      2.9696062109999999
   271   3      30.806787024000002      10.153222909999998     0.37667991900000003
   272   3      25.900772976000006      15.208277089999999      11.502457658999999
   273   3      26.756247024000007      10.981275884999999      11.502457658999999
   274   3      29.951312976000001      14.380224115000001     0.37667991900000003
   275   3      26.756247024000007      10.981275884999999      6.3158923409999996
   276   3      29.951312976000001      14.380224115000001      5.5628888699999992
   277   3      25.900772976000006      15.208277089999999      6.3158923409999996
   278   3      30.806787024000002      10.153222909999998      5.5628888699999992
   279   3            31.920685524      12.627744465000001      8.9091749999999994
   280   3      27.870145524000002      8.5067543299999997      2.9696062109999999
   281   1      36.612831060000005      12.172251924999998      2.9696062109999999
   282   1      32.562291060000007      8.9625004849999996      8.9091749999999994
   283   1             40.34742894            16.398999515      2.9696062109999999
   284   1      36.296888940000009            13.189248075      8.9091749999999994
   285   2      36.454860000000004       8.453748795000001             5.939568789
   286   2      32.404320000000006      12.680749999999998                       0
   287   2      32.404320000000006      12.680749999999998             5.939568789
   288   2      36.454860000000004       8.453748795000001                       0
   289   3      36.938494476000002             16.85474567      8.9091749999999994
   290   3      32.887954476000004            12.733755535      2.9696062109999999
   291   3      38.907867023999998      10.153222909999998     0.37667991900000003
   292   3      34.001852976000002      15.208277089999999      11.502457658999999
   293   3            34.857327024      10.981275884999999      11.502457658999999
   294   3            38.052392976      14.380224115000001     0.37667991900000003
   295   3            34.857327024      10.981275884999999      6.3158923409999996
   296   3            38.052392976      14.380224115000001      5.5628888699999992
   297   3      34.001852976000002      15.208277089999999      6.3158923409999996
   298   3      38.907867023999998      10.153222909999998      5.5628888699999992
   299   3      40.021765524000003      12.627744465000001      8.9091749999999994
   300   3      35.971225523999998      8.5067543299999997      2.9696062109999999
   301   1      44.713911060000015      12.172251924999998      2.9696062109999999
   302   1      40.663371060000003      8.9625004849999996      8.9091749999999994
   303   1      48.448508939999996            16.398999515      2.9696062109999999
   304   1      44.397968940000005            13.189248075      8.9091749999999994
   305   2      44.555940000000007       8.453748795000001             5.939568789
   306   2      40.505400000000002      12.680749999999998                       0
   307   2      40.505400000000002      12.680749999999998             5.939568789
   308   2      44.555940000000007       8.453748795000001                       0
   309   3      45.039574475999999             16.85474567      8.9091749999999994
   310   3      40.989034476000015            12.733755535      2.9696062109999999
   311   3      47.008947024000001      10.153222909999998     0.37667991900000003
   312   3      42.102932975999998      15.208277089999999      11.502457658999999
   313   3       42.95840702400001      10.981275884999999      11.502457658999999
   314   3      46.153472976000003      14.380224115000001     0.37667991900000003
   315   3       42.95840702400001      10.981275884999999      6.3158923409999996
   316   3      46.153472976000003      14.380224115000001      5.5628888699999992
   317   3      42.102932975999998      15.208277089999999      6.3158923409999996
   318   3      47.008947024000001      10.153222909999998      5.5628888699999992
   319   3      48.122845523999999      12.627744465000001      8.9091749999999994
   320   3      44.072305524000001      8.5067543299999997      2.9696062109999999
   321   1      52.814991060000004      12.172251924999998      2.9696062109999999
   322   1      48.764451059999999      8.9625004849999996      8.9091749999999994
   323   1      56.549588940000007            16.398999515      2.9696062109999999
   324   1      52.499048940000002            13.189248075      8.9091749999999994
   325   2      52.657020000000003       8.453748795000001             5.939568789
   326   2      48.606479999999998      12.680749999999998                       0
   327   2      48.606479999999998      12.680749999999998             5.939568789
   328   2      52.657020000000003       8.453748795000001                       0
   329   3      53.140654476000016             16.85474567      8.9091749999999994
   330   3      49.090114476000004            12.733755535      2.9696062109999999
   331   3      55.110027024000011      10.153222909999998     0.37667991900000003
   332   3      50.204012976000016      15.208277089999999      11.502457658999999
   333   3      51.059487023999999      10.981275884999999      11.502457658999999
   334   3      54.254552975999999      14.380224115000001     0.37667991900000003
   335   3      51.059487023999999      10.981275884999999      6.3158923409999996
   336   3      54.254552975999999      14.380224115000001      5.5628888699999992
   337   3      50.204012976000016      15.208277089999999      6.3158923409999996
   338   3      55.110027024000011      10.153222909999998      5.5628888699999992
   339   3      56.223925524000002      12.627744465000001      8.9091749999999994
   340   3      52.173385524000011      8.5067543299999997      2.9696062109999999
   341   1             60.91607106      12.172251924999998      2.9696062109999999
   342   1      56.865531060000009      8.9625004849999996      8.9091749999999994
   343   1      64.650668940000003            16.398999515      2.9696062109999999
   344   1      60.600128940000012            13.189248075      8.9091749999999994
   345   2      60.758099999999999       8.453748795000001             5.939568789
   346   2      56.707560000000008      12.680749999999998                       0
   347   2      56.707560000000008      12.680749999999998             5.939568789
   348   2      60.758099999999999       8.453748795000001                       0
   349   3      61.241734476000005             16.85474567      8.9091749999999994
   350   3            57.191194476            12.733755535      2.9696062109999999
   351   3            63.211107024      10.153222909999998     0.37667991900000003
   352   3      58.305092976000005      15.208277089999999      11.502457658999999
   353   3      59.160567024000002      10.981275884999999      11.502457658999999
   354   3       62.35563297600001      14.380224115000001     0.37667991900000003
   355   3      59.160567024000002      10.981275884999999      6.3158923409999996
   356   3       62.35563297600001      14.380224115000001      5.5628888699999992
   357   3      58.305092976000005      15.208277089999999      6.3158923409999996
   358   3            63.211107024      10.153222909999998      5.5628888699999992