/home/hsh/learnmd/study/1/dpgen/1233/md/redao/dp/pnma/30,60/15-3-3.lmp (written by ASE) 

2700 	 atoms 
3  atom types
0.0                121.5162  xlo xhi
0.0      25.361499999999999  ylo yhi
0.0      35.636699999999998  zlo zhi


Atoms 

     1 1  4.2081060060000013      3.7182495149999997      2.9696062109999999
     2 1 0.15797106000000002     0.50849807499999999      8.9091749999999994
     3 1  7.9435139940000008      7.9452507199999998      2.9696062109999999
     4 1  3.8933790479999999              4.73549928      8.9091749999999994
     5 2  4.0501349460000009                       0             5.939568789
     6 2                   0      4.2270012050000005                       0
     7 2                   0      4.2270012050000005             5.939568789
     8 2  4.0501349460000009                       0                       0
     9 3  4.5337694220000015      8.4009968749999988      8.9091749999999994
    10 3 0.48363447599999998      4.2797531249999992      2.9696062109999999
    11 3  6.5035470239999995      1.6994741149999997     0.37667991900000003
    12 3  1.5979380299999999      6.7545282950000001      11.502457658999999
    13 3  2.4534120780000004              2.52752709      11.502457658999999
    14 3  5.6480729759999999      5.9262217049999997     0.37667991900000003
    15 3  2.4534120780000004              2.52752709      6.3158923409999996
    16 3  5.6480729759999999      5.9262217049999997      5.5628888699999992
    17 3  1.5979380299999999      6.7545282950000001      6.3158923409999996
    18 3  6.5035470239999995      1.6994741149999997      5.5628888699999992
    19 3  7.6178505780000014              4.17399567      8.9091749999999994
    20 3  3.5677156320000005    0.053005534999999986      2.9696062109999999
    21 1  12.309591060000002      3.7182495149999997      2.9696062109999999
    22 1  8.2582409520000031     0.50849807499999999      8.9091749999999994
    23 1  16.044999047999998      7.9452507199999998      2.9696062109999999
    24 1  11.993648940000002              4.73549928      8.9091749999999994
    25 2  12.151620000000003                       0             5.939568789
    26 2  8.1014850540000012      4.2270012050000005                       0
    27 2  8.1014850540000012      4.2270012050000005             5.939568789
    28 2  12.151620000000003                       0                       0
    29 3  12.635254476000002      8.4009968749999988      8.9091749999999994
    30 3  8.5839043679999989      4.2797531249999992      2.9696062109999999
    31 3  14.605032078000002      1.6994741149999997     0.37667991900000003
    32 3  9.6982079219999999      6.7545282950000001      11.502457658999999
    33 3  10.553681970000001              2.52752709      11.502457658999999
    34 3  13.749558029999999      5.9262217049999997     0.37667991900000003
    35 3  10.553681970000001              2.52752709      6.3158923409999996
    36 3  13.749558029999999      5.9262217049999997      5.5628888699999992
    37 3  9.6982079219999999      6.7545282950000001      6.3158923409999996
    38 3  14.605032078000002      1.6994741149999997      5.5628888699999992
    39 3        15.719335632              4.17399567      8.9091749999999994
    40 3  11.667985523999999    0.053005534999999986      2.9696062109999999
    41 1  20.409860951999999      3.7182495149999997      2.9696062109999999
    42 1  16.359726005999999     0.50849807499999999      8.9091749999999994
    43 1  24.145268939999998      7.9452507199999998      2.9696062109999999
    44 1  20.095133993999998              4.73549928      8.9091749999999994
    45 2  20.253105054000006                       0             5.939568789
    46 2  16.201754946000005      4.2270012050000005                       0
    47 2  16.201754946000005      4.2270012050000005             5.939568789
    48 2  20.253105054000006                       0                       0
    49 3  20.735524367999997      8.4009968749999988      8.9091749999999994
    50 3  16.685389421999997      4.2797531249999992      2.9696062109999999
    51 3  22.705301969999997      1.6994741149999997     0.37667991900000003
    52 3  17.799692975999999      6.7545282950000001      11.502457658999999
    53 3  18.655167023999997              2.52752709      11.502457658999999
    54 3  21.849827922000003      5.9262217049999997     0.37667991900000003
    55 3  18.655167023999997              2.52752709      6.3158923409999996
    56 3  21.849827922000003      5.9262217049999997      5.5628888699999992
    57 3  17.799692975999999      6.7545282950000001      6.3158923409999996
    58 3  22.705301969999997      1.6994741149999997      5.5628888699999992
    59 3  23.819605524000004              4.17399567      8.9091749999999994
    60 3        19.769470578    0.053005534999999986      2.9696062109999999
    61 1  28.511346006000004      3.7182495149999997      2.9696062109999999
    62 1         24.46121106     0.50849807499999999      8.9091749999999994
    63 1  32.246753994000002      7.9452507199999998      2.9696062109999999
    64 1  28.196619048000002              4.73549928      8.9091749999999994
    65 2  28.353374946000002                       0             5.939568789
    66 2  24.303240000000006      4.2270012050000005                       0
    67 2  24.303240000000006      4.2270012050000005             5.939568789
    68 2  28.353374946000002                       0                       0
    69 3  28.837009421999998      8.4009968749999988      8.9091749999999994
    70 3  24.786874475999998      4.2797531249999992      2.9696062109999999
    71 3  30.806787024000002      1.6994741149999997     0.37667991900000003
    72 3  25.901178030000004      6.7545282950000001      11.502457658999999
    73 3  26.756652077999998              2.52752709      11.502457658999999
    74 3  29.951312976000004      5.9262217049999997     0.37667991900000003
    75 3  26.756652077999998              2.52752709      6.3158923409999996
    76 3  29.951312976000004      5.9262217049999997      5.5628888699999992
    77 3  25.901178030000004      6.7545282950000001      6.3158923409999996
    78 3  30.806787024000002      1.6994741149999997      5.5628888699999992
    79 3  31.921090577999998              4.17399567      8.9091749999999994
    80 3  27.870955632000005    0.053005534999999986      2.9696062109999999
    81 1  36.612831059999998      3.7182495149999997      2.9696062109999999
    82 1  32.561480951999997     0.50849807499999999      8.9091749999999994
    83 1  40.348239047999996      7.9452507199999998      2.9696062109999999
    84 1  36.296888940000002              4.73549928      8.9091749999999994
    85 2  36.454859999999996                       0             5.939568789
    86 2  32.404725054000011      4.2270012050000005                       0
    87 2  32.404725054000011      4.2270012050000005             5.939568789
    88 2  36.454859999999996                       0                       0
    89 3  36.938494475999995      8.4009968749999988      8.9091749999999994
    90 3  32.887144368000008      4.2797531249999992      2.9696062109999999
    91 3  38.908272077999996      1.6994741149999997     0.37667991900000003
    92 3  34.001447921999997      6.7545282950000001      11.502457658999999
    93 3  34.856921970000002              2.52752709      11.502457658999999
    94 3  38.052798030000005      5.9262217049999997     0.37667991900000003
    95 3  34.856921970000002              2.52752709      6.3158923409999996
    96 3  38.052798030000005      5.9262217049999997      5.5628888699999992
    97 3  34.001447921999997      6.7545282950000001      6.3158923409999996
    98 3  38.908272077999996      1.6994741149999997      5.5628888699999992
    99 3  40.022575632000006              4.17399567      8.9091749999999994
   100 3  35.971225523999998    0.053005534999999986      2.9696062109999999
   101 1  44.713100951999998      3.7182495149999997      2.9696062109999999
   102 1  40.662966006000005     0.50849807499999999      8.9091749999999994
   103 1  48.448508939999996      7.9452507199999998      2.9696062109999999
   104 1  44.398373994000004              4.73549928      8.9091749999999994
   105 2  44.556345053999998                       0             5.939568789
   106 2  40.504994946000011      4.2270012050000005                       0
   107 2  40.504994946000011      4.2270012050000005             5.939568789
   108 2  44.556345053999998                       0                       0
   109 3   45.03876436800001      8.4009968749999988      8.9091749999999994
   110 3  40.988629422000002      4.2797531249999992      2.9696062109999999
   111 3   47.00854197000001      1.6994741149999997     0.37667991900000003
   112 3  42.102932975999998      6.7545282950000001      11.502457658999999
   113 3  42.958407023999996              2.52752709      11.502457658999999
   114 3  46.153067922000005      5.9262217049999997     0.37667991900000003
   115 3  42.958407023999996              2.52752709      6.3158923409999996
   116 3  46.153067922000005      5.9262217049999997      5.5628888699999992
   117 3  42.102932975999998      6.7545282950000001      6.3158923409999996
   118 3   47.00854197000001      1.6994741149999997      5.5628888699999992
   119 3  48.122845524000006              4.17399567      8.9091749999999994
   120 3  44.072710577999999    0.053005534999999986      2.9696062109999999
   121 1  52.814586005999999      3.7182495149999997      2.9696062109999999
   122 1  48.764451060000006     0.50849807499999999      8.9091749999999994
   123 1  56.549993993999998      7.9452507199999998      2.9696062109999999
   124 1  52.499859048000005              4.73549928      8.9091749999999994
   125 2  52.656614946000005                       0             5.939568789
   126 2  48.606480000000012      4.2270012050000005                       0
   127 2  48.606480000000012      4.2270012050000005             5.939568789
   128 2  52.656614946000005                       0                       0
   129 3  53.140249422000004      8.4009968749999988      8.9091749999999994
   130 3  49.090114475999997      4.2797531249999992      2.9696062109999999
   131 3  55.110027024000004      1.6994741149999997     0.37667991900000003
   132 3  50.204418029999999      6.7545282950000001      11.502457658999999
   133 3  51.059892077999997              2.52752709      11.502457658999999
   134 3  54.254552976000006      5.9262217049999997     0.37667991900000003
   135 3  51.059892077999997              2.52752709      6.3158923409999996
   136 3  54.254552976000006      5.9262217049999997      5.5628888699999992
   137 3  50.204418029999999      6.7545282950000001      6.3158923409999996
   138 3  55.110027024000004      1.6994741149999997      5.5628888699999992
   139 3  56.224330578000007              4.17399567      8.9091749999999994
   140 3        52.174195632    0.053005534999999986      2.9696062109999999
   141 1  60.916071059999993      3.7182495149999997      2.9696062109999999
   142 1  56.864720952000006     0.50849807499999999      8.9091749999999994
   143 1  64.651479048000013      7.9452507199999998      2.9696062109999999
   144 1  60.600128940000005              4.73549928      8.9091749999999994
   145 2  60.758099999999999                       0             5.939568789
   146 2  56.707965054000006      4.2270012050000005                       0
   147 2  56.707965054000006      4.2270012050000005             5.939568789
   148 2  60.758099999999999                       0                       0
   149 3  61.241734475999998      8.4009968749999988      8.9091749999999994
   150 3  57.190384367999997      4.2797531249999992      2.9696062109999999
   151 3  63.211512078000005      1.6994741149999997     0.37667991900000003
   152 3  58.304687921999999      6.7545282950000001      11.502457658999999
   153 3  59.160161969999997              2.52752709      11.502457658999999
   154 3  62.356038030000015      5.9262217049999997     0.37667991900000003
   155 3  59.160161969999997              2.52752709      6.3158923409999996
   156 3  62.356038030000015      5.9262217049999997      5.5628888699999992
   157 3  58.304687921999999      6.7545282950000001      6.3158923409999996
   158 3  63.211512078000005      1.6994741149999997      5.5628888699999992
   159 3  64.325815632000001              4.17399567      8.9091749999999994
   160 3  60.274465524000007    0.053005534999999986      2.9696062109999999
   161 1  69.016340952000022      3.7182495149999997      2.9696062109999999
   162 1  64.966206006000021     0.50849807499999999      8.9091749999999994
   163 1  72.751748939999999      7.9452507199999998      2.9696062109999999
   164 1  68.701613993999999              4.73549928      8.9091749999999994
   165 2  68.859585053999993                       0             5.939568789
   166 2  64.808234946000013      4.2270012050000005                       0
   167 2  64.808234946000013      4.2270012050000005             5.939568789
   168 2  68.859585053999993                       0                       0
   169 3  69.342004368000019      8.4009968749999988      8.9091749999999994
   170 3  65.291869421999991      4.2797531249999992      2.9696062109999999
   171 3  71.311781970000013      1.6994741149999997     0.37667991900000003
   172 3  66.406172975999993      6.7545282950000001      11.502457658999999
   173 3  67.261647023999998              2.52752709      11.502457658999999
   174 3  70.456307922000022      5.9262217049999997     0.37667991900000003
   175 3  67.261647023999998              2.52752709      6.3158923409999996
   176 3  70.456307922000022      5.9262217049999997      5.5628888699999992
   177 3  66.406172975999993      6.7545282950000001      6.3158923409999996
   178 3  71.311781970000013      1.6994741149999997      5.5628888699999992
   179 3  72.426085524000015              4.17399567      8.9091749999999994
   180 3  68.375950578000001    0.053005534999999986      2.9696062109999999
   181 1  77.117826006000001      3.7182495149999997      2.9696062109999999
   182 1  73.067691059999987     0.50849807499999999      8.9091749999999994
   183 1  80.853233994000007      7.9452507199999998      2.9696062109999999
   184 1  76.803099048000021              4.73549928      8.9091749999999994
   185 2  76.959854945999993                       0             5.939568789
   186 2  72.909719999999993      4.2270012050000005                       0
   187 2  72.909719999999993      4.2270012050000005             5.939568789
   188 2  76.959854945999993                       0                       0
   189 3  77.443489421999999      8.4009968749999988      8.9091749999999994
   190 3  73.393354476000013      4.2797531249999992      2.9696062109999999
   191 3  79.413267023999992      1.6994741149999997     0.37667991900000003
   192 3  74.507658030000002      6.7545282950000001      11.502457658999999
   193 3  75.363132078000021              2.52752709      11.502457658999999
   194 3  78.557792976000002      5.9262217049999997     0.37667991900000003
   195 3  75.363132078000021              2.52752709      6.3158923409999996
   196 3  78.557792976000002      5.9262217049999997      5.5628888699999992
   197 3  74.507658030000002      6.7545282950000001      6.3158923409999996
   198 3  79.413267023999992      1.6994741149999997      5.5628888699999992
   199 3  80.527570577999995              4.17399567      8.9091749999999994
   200 3  76.477435631999995    0.053005534999999986      2.9696062109999999
   201 1   85.21931106000001      3.7182495149999997      2.9696062109999999
   202 1  81.167960952000016     0.50849807499999999      8.9091749999999994
   203 1  88.954719048000001      7.9452507199999998      2.9696062109999999
   204 1  84.903368939999993              4.73549928      8.9091749999999994
   205 2  85.061339999999987                       0             5.939568789
   206 2  81.011205054000015      4.2270012050000005                       0
   207 2  81.011205054000015      4.2270012050000005             5.939568789
   208 2  85.061339999999987                       0                       0
   209 3  85.544974476000021      8.4009968749999988      8.9091749999999994
   210 3  81.493624367999999      4.2797531249999992      2.9696062109999999
   211 3  87.514752078000015      1.6994741149999997     0.37667991900000003
   212 3  82.607927922000002      6.7545282950000001      11.502457658999999
   213 3  83.463401969999993              2.52752709      11.502457658999999
   214 3   86.65927803000001      5.9262217049999997     0.37667991900000003
   215 3  83.463401969999993              2.52752709      6.3158923409999996
   216 3   86.65927803000001      5.9262217049999997      5.5628888699999992
   217 3  82.607927922000002      6.7545282950000001      6.3158923409999996
   218 3  87.514752078000015      1.6994741149999997      5.5628888699999992
   219 3  88.629055632000018              4.17399567      8.9091749999999994
   220 3  84.577705523999995    0.053005534999999986      2.9696062109999999
   221 1   93.31958095200001      3.7182495149999997      2.9696062109999999
   222 1  89.269446005999995     0.50849807499999999      8.9091749999999994
   223 1  97.054988939999987      7.9452507199999998      2.9696062109999999
   224 1  93.004853994000015              4.73549928      8.9091749999999994
   225 2   93.16282505400001                       0             5.939568789
   226 2  89.111474946000001      4.2270012050000005                       0
   227 2  89.111474946000001      4.2270012050000005             5.939568789
   228 2   93.16282505400001                       0                       0
   229 3  93.645244367999993      8.4009968749999988      8.9091749999999994
   230 3  89.595109422000021      4.2797531249999992      2.9696062109999999
   231 3  95.615021970000001      1.6994741149999997     0.37667991900000003
   232 3  90.709412975999996      6.7545282950000001      11.502457658999999
   233 3  91.564887024000001              2.52752709      11.502457658999999
   234 3  94.759547921999996      5.9262217049999997     0.37667991900000003
   235 3  91.564887024000001              2.52752709      6.3158923409999996
   236 3  94.759547921999996      5.9262217049999997      5.5628888699999992
   237 3  90.709412975999996      6.7545282950000001      6.3158923409999996
   238 3  95.615021970000001      1.6994741149999997      5.5628888699999992
   239 3  96.729325523999989              4.17399567      8.9091749999999994
   240 3  92.679190577999989    0.053005534999999986      2.9696062109999999
   241 1  101.42106600599999      3.7182495149999997      2.9696062109999999
   242 1  97.370931060000018     0.50849807499999999      8.9091749999999994
   243 1  105.15647399400001      7.9452507199999998      2.9696062109999999
   244 1       101.106339048              4.73549928      8.9091749999999994
   245 2       101.263094946                       0             5.939568789
   246 2  97.212960000000024      4.2270012050000005                       0
   247 2  97.212960000000024      4.2270012050000005             5.939568789
   248 2       101.263094946                       0                       0
   249 3  101.74672942200002      8.4009968749999988      8.9091749999999994
   250 3  97.696594476000016      4.2797531249999992      2.9696062109999999
   251 3  103.71650702400001      1.6994741149999997     0.37667991900000003
   252 3  98.810898030000018      6.7545282950000001      11.502457658999999
   253 3  99.666372078000009              2.52752709      11.502457658999999
   254 3  102.86103297600002      5.9262217049999997     0.37667991900000003
   255 3  99.666372078000009              2.52752709      6.3158923409999996
   256 3  102.86103297600002      5.9262217049999997      5.5628888699999992
   257 3  98.810898030000018      6.7545282950000001      6.3158923409999996
   258 3  103.71650702400001      1.6994741149999997      5.5628888699999992
   259 3  104.83081057800001              4.17399567      8.9091749999999994
   260 3  100.78067563200001    0.053005534999999986      2.9696062109999999
   261 1  109.52255106000001      3.7182495149999997      2.9696062109999999
   262 1  105.47120095199999     0.50849807499999999      8.9091749999999994
   263 1  113.25795904799999      7.9452507199999998      2.9696062109999999
   264 1  109.20660894000002              4.73549928      8.9091749999999994
   265 2  109.36458000000002                       0             5.939568789
   266 2  105.31444505400002      4.2270012050000005                       0
   267 2  105.31444505400002      4.2270012050000005             5.939568789
   268 2  109.36458000000002                       0                       0
   269 3       109.848214476      8.4009968749999988      8.9091749999999994
   270 3       105.796864368      4.2797531249999992      2.9696062109999999
   271 3  111.81799207799999      1.6994741149999997     0.37667991900000003
   272 3  106.91116792199999      6.7545282950000001      11.502457658999999
   273 3  107.76664196999999              2.52752709      11.502457658999999
   274 3        110.96251803      5.9262217049999997     0.37667991900000003
   275 3  107.76664196999999              2.52752709      6.3158923409999996
   276 3        110.96251803      5.9262217049999997      5.5628888699999992
   277 3  106.91116792199999      6.7545282950000001      6.3158923409999996
   278 3  111.81799207799999      1.6994741149999997      5.5628888699999992
   279 3  112.93229563200001              4.17399567      8.9091749999999994
   280 3       108.880945524    0.053005534999999986      2.9696062109999999
   281 1       117.622820952      3.7182495149999997      2.9696062109999999
   282 1  113.57268600600001     0.50849807499999999      8.9091749999999994
   283 1  121.35822894000002      7.9452507199999998      2.9696062109999999
   284 1  117.30809399399999              4.73549928      8.9091749999999994
   285 2       117.466065054                       0             5.939568789
   286 2       113.414714946      4.2270012050000005                       0
   287 2       113.414714946      4.2270012050000005             5.939568789
   288 2       117.466065054                       0                       0
   289 3  117.94848436800001      8.4009968749999988      8.9091749999999994
   290 3  113.89834942200001      4.2797531249999992      2.9696062109999999
   291 3  119.91826197000002      1.6994741149999997     0.37667991900000003
   292 3  115.01265297600001      6.7545282950000001      11.502457658999999
   293 3  115.86812702400002              2.52752709      11.502457658999999
   294 3  119.06278792200001      5.9262217049999997     0.37667991900000003
   295 3  115.86812702400002              2.52752709      6.3158923409999996
   296 3  119.06278792200001      5.9262217049999997      5.5628888699999992
   297 3  115.01265297600001      6.7545282950000001      6.3158923409999996
   298 3  119.91826197000002      1.6994741149999997      5.5628888699999992
   299 3  121.03256552400002              4.17399567      8.9091749999999994
   300 3  116.98243057800002    0.053005534999999986      2.9696062109999999
   301 1  4.2081060060000013      12.172251924999998      2.9696062109999999
   302 1 0.15797106000000002      8.9625004849999996      8.9091749999999994
   303 1  7.9435139940000008            16.398999515      2.9696062109999999
   304 1  3.8933790479999999            13.189248075      8.9091749999999994
   305 2  4.0501349460000009       8.453748795000001             5.939568789
   306 2                   0      12.680749999999998                       0
   307 2                   0      12.680749999999998             5.939568789
   308 2  4.0501349460000009       8.453748795000001                       0
   309 3  4.5337694220000015             16.85474567      8.9091749999999994
   310 3 0.48363447599999998            12.733755535      2.9696062109999999
   311 3  6.5035470239999995      10.153222909999998     0.37667991900000003
   312 3  1.5979380299999999      15.208277089999999      11.502457658999999
   313 3  2.4534120780000004      10.981275884999999      11.502457658999999
   314 3  5.6480729759999999      14.380224115000001     0.37667991900000003
   315 3  2.4534120780000004      10.981275884999999      6.3158923409999996
   316 3  5.6480729759999999      14.380224115000001      5.5628888699999992
   317 3  1.5979380299999999      15.208277089999999      6.3158923409999996
   318 3  6.5035470239999995      10.153222909999998      5.5628888699999992
   319 3  7.6178505780000014      12.627744465000001      8.9091749999999994
   320 3  3.5677156320000005      8.5067543299999997      2.9696062109999999
   321 1  12.309591060000002      12.172251924999998      2.9696062109999999
   322 1  8.2582409520000031      8.9625004849999996      8.9091749999999994
   323 1  16.044999047999998            16.398999515      2.9696062109999999
   324 1  11.993648940000002            13.189248075      8.9091749999999994
   325 2  12.151620000000003       8.453748795000001             5.939568789
   326 2  8.1014850540000012      12.680749999999998                       0
   327 2  8.1014850540000012      12.680749999999998             5.939568789
   328 2  12.151620000000003       8.453748795000001                       0
   329 3  12.635254476000002             16.85474567      8.9091749999999994
   330 3  8.5839043679999989            12.733755535      2.9696062109999999
   331 3  14.605032078000002      10.153222909999998     0.37667991900000003
   332 3  9.6982079219999999      15.208277089999999      11.502457658999999
   333 3  10.553681970000001      10.981275884999999      11.502457658999999
   334 3  13.749558029999999      14.380224115000001     0.37667991900000003
   335 3  10.553681970000001      10.981275884999999      6.3158923409999996
   336 3  13.749558029999999      14.380224115000001      5.5628888699999992
   337 3  9.6982079219999999      15.208277089999999      6.3158923409999996
   338 3  14.605032078000002      10.153222909999998      5.5628888699999992
   339 3        15.719335632      12.627744465000001      8.9091749999999994
   340 3  11.667985523999999      8.5067543299999997      2.9696062109999999
   341 1  20.409860951999999      12.172251924999998      2.9696062109999999
   342 1  16.359726005999999      8.9625004849999996      8.9091749999999994
   343 1  24.145268939999998            16.398999515      2.9696062109999999
   344 1  20.095133993999998            13.189248075      8.9091749999999994
   345 2  20.253105054000006       8.453748795000001             5.939568789
   346 2  16.201754946000005      12.680749999999998                       0
   347 2  16.201754946000005      12.680749999999998             5.939568789
   348 2  20.253105054000006       8.453748795000001                       0
   349 3  20.735524367999997             16.85474567      8.9091749999999994
   350 3  16.685389421999997            12.733755535      2.9696062109999999
   351 3  22.705301969999997      10.153222909999998     0.37667991900000003
   352 3  17.799692975999999      15.208277089999999      11.502457658999999
   353 3  18.655167023999997      10.981275884999999      11.502457658999999
   354 3  21.849827922000003      14.380224115000001     0.37667991900000003
   355 3  18.655167023999997      10.981275884999999      6.3158923409999996
   356 3  21.849827922000003      14.380224115000001      5.5628888699999992
   357 3  17.799692975999999      15.208277089999999      6.3158923409999996
   358 3  22.705301969999997      10.153222909999998      5.5628888699999992
   359 3  23.819605524000004      12.627744465000001      8.9091749999999994
   360 3        19.769470578      8.5067543299999997      2.9696062109999999
   361 1  28.511346006000004      12.172251924999998      2.9696062109999999
   362 1         24.46121106      8.9625004849999996      8.9091749999999994
   363 1  32.246753994000002            16.398999515      2.9696062109999999
   364 1  28.196619048000002            13.189248075      8.9091749999999994
   365 2  28.353374946000002       8.453748795000001             5.939568789
   366 2  24.303240000000006      12.680749999999998                       0
   367 2  24.303240000000006      12.680749999999998             5.939568789
   368 2  28.353374946000002       8.453748795000001                       0
   369 3  28.837009421999998             16.85474567      8.9091749999999994
   370 3  24.786874475999998            12.733755535      2.9696062109999999
   371 3  30.806787024000002      10.153222909999998     0.37667991900000003
   372 3  25.901178030000004      15.208277089999999      11.502457658999999
   373 3  26.756652077999998      10.981275884999999      11.502457658999999
   374 3  29.951312976000004      14.380224115000001     0.37667991900000003
   375 3  26.756652077999998      10.981275884999999      6.3158923409999996
   376 3  29.951312976000004      14.380224115000001      5.5628888699999992
   377 3  25.901178030000004      15.208277089999999      6.3158923409999996
   378 3  30.806787024000002      10.153222909999998      5.5628888699999992
   379 3  31.921090577999998      12.627744465000001      8.9091749999999994
   380 3  27.870955632000005      8.5067543299999997      2.9696062109999999
   381 1  36.612831059999998      12.172251924999998      2.9696062109999999
   382 1  32.561480951999997      8.9625004849999996      8.9091749999999994
   383 1  40.348239047999996            16.398999515      2.9696062109999999
   384 1  36.296888940000002            13.189248075      8.9091749999999994
   385 2  36.454859999999996       8.453748795000001             5.939568789
   386 2  32.404725054000011      12.680749999999998                       0