/home/hsh/learnmd/study/1/dpgen/CsPbBr3/lammps/redao/dp/pnma/20,50,80-3-3/20-3-3pnma.lmp (written by ASE) 

3600 	 atoms 
3  atom types
0.0      162.02160000000001  xlo xhi
0.0      25.361499999999999  ylo yhi
0.0      35.636699999999998  zlo zhi


Atoms 

     1   1      4.2077009520000006      3.7182495149999997      2.9696062109999999
     2   1     0.15716095200000002     0.50849807499999999      8.9091749999999994
     3   1      7.9439190479999997      7.9452507199999998      2.9696062109999999
     4   1      3.8933790479999999              4.73549928      8.9091749999999994
     5   2      4.0505400000000007                       0             5.939568789
     6   2                       0      4.2270012050000005                       0
     7   2                       0      4.2270012050000005             5.939568789
     8   2      4.0505400000000007                       0                       0
     9   3             4.533364368      8.4009968749999988      8.9091749999999994
    10   3             0.482824368      4.2797531249999992      2.9696062109999999
    11   3      6.5035470240000004      1.6994741149999997     0.37667991900000003
    12   3      1.5975329760000001      6.7545282950000001      11.502457658999999
    13   3      2.4530070240000001              2.52752709      11.502457658999999
    14   3      5.6480729760000017      5.9262217049999997     0.37667991900000003
    15   3      2.4530070240000001              2.52752709      6.3158923409999996
    16   3      5.6480729760000017      5.9262217049999997      5.5628888699999992
    17   3      1.5975329760000001      6.7545282950000001      6.3158923409999996
    18   3      6.5035470240000004      1.6994741149999997      5.5628888699999992
    19   3      7.6182556320000012              4.17399567      8.9091749999999994
    20   3       3.567715632000001    0.053005534999999986      2.9696062109999999
    21   1      12.308780951999999      3.7182495149999997      2.9696062109999999
    22   1      8.2582409520000013     0.50849807499999999      8.9091749999999994
    23   1      16.044999048000001      7.9452507199999998      2.9696062109999999
    24   1            11.994459048              4.73549928      8.9091749999999994
    25   2      12.151619999999999                       0             5.939568789
    26   2      8.1010800000000014      4.2270012050000005                       0
    27   2      8.1010800000000014      4.2270012050000005             5.939568789
    28   2      12.151619999999999                       0                       0
    29   3      12.634444367999999      8.4009968749999988      8.9091749999999994
    30   3      8.5839043680000007      4.2797531249999992      2.9696062109999999
    31   3      14.604627024000003      1.6994741149999997     0.37667991900000003
    32   3      9.6986129759999997      6.7545282950000001      11.502457658999999
    33   3      10.554087024000001              2.52752709      11.502457658999999
    34   3      13.749152976000001      5.9262217049999997     0.37667991900000003
    35   3      10.554087024000001              2.52752709      6.3158923409999996
    36   3      13.749152976000001      5.9262217049999997      5.5628888699999992
    37   3      9.6986129759999997      6.7545282950000001      6.3158923409999996
    38   3      14.604627024000003      1.6994741149999997      5.5628888699999992
    39   3            15.719335632              4.17399567      8.9091749999999994
    40   3            11.668795632    0.053005534999999986      2.9696062109999999
    41   1      20.409860951999999      3.7182495149999997      2.9696062109999999
    42   1      16.359320952000001     0.50849807499999999      8.9091749999999994
    43   1      24.146079048000001      7.9452507199999998      2.9696062109999999
    44   1      20.095539048000003              4.73549928      8.9091749999999994
    45   2      20.252700000000001                       0             5.939568789
    46   2      16.202160000000003      4.2270012050000005                       0
    47   2      16.202160000000003      4.2270012050000005             5.939568789
    48   2      20.252700000000001                       0                       0
    49   3      20.735524368000007      8.4009968749999988      8.9091749999999994
    50   3      16.684984368000002      4.2797531249999992      2.9696062109999999
    51   3      22.705707023999999      1.6994741149999997     0.37667991900000003
    52   3      17.799692975999999      6.7545282950000001      11.502457658999999
    53   3      18.655167024000001              2.52752709      11.502457658999999
    54   3      21.850232976000001      5.9262217049999997     0.37667991900000003
    55   3      18.655167024000001              2.52752709      6.3158923409999996
    56   3      21.850232976000001      5.9262217049999997      5.5628888699999992
    57   3      17.799692975999999      6.7545282950000001      6.3158923409999996
    58   3      22.705707023999999      1.6994741149999997      5.5628888699999992
    59   3      23.820415632000003              4.17399567      8.9091749999999994
    60   3      19.769875632000005    0.053005534999999986      2.9696062109999999
    61   1      28.510940951999999      3.7182495149999997      2.9696062109999999
    62   1      24.460400952000001     0.50849807499999999      8.9091749999999994
    63   1            32.247159048      7.9452507199999998      2.9696062109999999
    64   1      28.196619047999999              4.73549928      8.9091749999999994
    65   2      28.353780000000004                       0             5.939568789
    66   2      24.303239999999999      4.2270012050000005                       0
    67   2      24.303239999999999      4.2270012050000005             5.939568789
    68   2      28.353780000000004                       0                       0
    69   3            28.836604368      8.4009968749999988      8.9091749999999994
    70   3      24.786064368000002      4.2797531249999992      2.9696062109999999
    71   3      30.806787024000002      1.6994741149999997     0.37667991900000003
    72   3      25.900772976000006      6.7545282950000001      11.502457658999999
    73   3      26.756247024000007              2.52752709      11.502457658999999
    74   3      29.951312976000001      5.9262217049999997     0.37667991900000003
    75   3      26.756247024000007              2.52752709      6.3158923409999996
    76   3      29.951312976000001      5.9262217049999997      5.5628888699999992
    77   3      25.900772976000006      6.7545282950000001      6.3158923409999996
    78   3      30.806787024000002      1.6994741149999997      5.5628888699999992
    79   3      31.921495632000006              4.17399567      8.9091749999999994
    80   3      27.870955632000001    0.053005534999999986      2.9696062109999999
    81   1      36.612020952000002      3.7182495149999997      2.9696062109999999
    82   1      32.561480952000011     0.50849807499999999      8.9091749999999994
    83   1      40.348239048000003      7.9452507199999998      2.9696062109999999
    84   1      36.297699048000005              4.73549928      8.9091749999999994
    85   2      36.454860000000004                       0             5.939568789
    86   2      32.404320000000006      4.2270012050000005                       0
    87   2      32.404320000000006      4.2270012050000005             5.939568789
    88   2      36.454860000000004                       0                       0
    89   3      36.937684367999999      8.4009968749999988      8.9091749999999994
    90   3      32.887144368000001      4.2797531249999992      2.9696062109999999
    91   3      38.907867023999998      1.6994741149999997     0.37667991900000003
    92   3      34.001852976000002      6.7545282950000001      11.502457658999999
    93   3            34.857327024              2.52752709      11.502457658999999
    94   3            38.052392976      5.9262217049999997     0.37667991900000003
    95   3            34.857327024              2.52752709      6.3158923409999996
    96   3            38.052392976      5.9262217049999997      5.5628888699999992
    97   3      34.001852976000002      6.7545282950000001      6.3158923409999996
    98   3      38.907867023999998      1.6994741149999997      5.5628888699999992
    99   3      40.022575631999999              4.17399567      8.9091749999999994
   100   3      35.972035632000008    0.053005534999999986      2.9696062109999999
   101   1      44.713100951999998      3.7182495149999997      2.9696062109999999
   102   1      40.662560952000007     0.50849807499999999      8.9091749999999994
   103   1      48.449319048000014      7.9452507199999998      2.9696062109999999
   104   1      44.398779048000002              4.73549928      8.9091749999999994
   105   2      44.555940000000007                       0             5.939568789
   106   2      40.505400000000002      4.2270012050000005                       0
   107   2      40.505400000000002      4.2270012050000005             5.939568789
   108   2      44.555940000000007                       0                       0
   109   3      45.038764368000002      8.4009968749999988      8.9091749999999994
   110   3      40.988224367999997      4.2797531249999992      2.9696062109999999
   111   3      47.008947024000001      1.6994741149999997     0.37667991900000003
   112   3      42.102932975999998      6.7545282950000001      11.502457658999999
   113   3       42.95840702400001              2.52752709      11.502457658999999
   114   3      46.153472976000003      5.9262217049999997     0.37667991900000003
   115   3       42.95840702400001              2.52752709      6.3158923409999996
   116   3      46.153472976000003      5.9262217049999997      5.5628888699999992
   117   3      42.102932975999998      6.7545282950000001      6.3158923409999996
   118   3      47.008947024000001      1.6994741149999997      5.5628888699999992
   119   3      48.123655632000002              4.17399567      8.9091749999999994
   120   3      44.073115631999997    0.053005534999999986      2.9696062109999999
   121   1      52.814180952000008      3.7182495149999997      2.9696062109999999
   122   1      48.763640952000003     0.50849807499999999      8.9091749999999994
   123   1      56.550399048000003      7.9452507199999998      2.9696062109999999
   124   1      52.499859047999998              4.73549928      8.9091749999999994
   125   2      52.657020000000003                       0             5.939568789
   126   2      48.606479999999998      4.2270012050000005                       0
   127   2      48.606479999999998      4.2270012050000005             5.939568789
   128   2      52.657020000000003                       0                       0
   129   3      53.139844367999999      8.4009968749999988      8.9091749999999994
   130   3      49.089304368000008      4.2797531249999992      2.9696062109999999
   131   3      55.110027024000011      1.6994741149999997     0.37667991900000003
   132   3      50.204012976000016      6.7545282950000001      11.502457658999999
   133   3      51.059487023999999              2.52752709      11.502457658999999
   134   3      54.254552975999999      5.9262217049999997     0.37667991900000003
   135   3      51.059487023999999              2.52752709      6.3158923409999996
   136   3      54.254552975999999      5.9262217049999997      5.5628888699999992
   137   3      50.204012976000016      6.7545282950000001      6.3158923409999996
   138   3      55.110027024000011      1.6994741149999997      5.5628888699999992
   139   3      56.224735631999998              4.17399567      8.9091749999999994
   140   3      52.174195632000007    0.053005534999999986      2.9696062109999999
   141   1      60.915260952000004      3.7182495149999997      2.9696062109999999
   142   1      56.864720952000013     0.50849807499999999      8.9091749999999994
   143   1      64.651479047999999      7.9452507199999998      2.9696062109999999
   144   1      60.600939048000008              4.73549928      8.9091749999999994
   145   2      60.758099999999999                       0             5.939568789
   146   2      56.707560000000008      4.2270012050000005                       0
   147   2      56.707560000000008      4.2270012050000005             5.939568789
   148   2      60.758099999999999                       0                       0
   149   3      61.240924368000009      8.4009968749999988      8.9091749999999994
   150   3      57.190384368000004      4.2797531249999992      2.9696062109999999
   151   3            63.211107024      1.6994741149999997     0.37667991900000003
   152   3      58.305092976000005      6.7545282950000001      11.502457658999999
   153   3      59.160567024000002              2.52752709      11.502457658999999
   154   3       62.35563297600001      5.9262217049999997     0.37667991900000003
   155   3      59.160567024000002              2.52752709      6.3158923409999996
   156   3       62.35563297600001      5.9262217049999997      5.5628888699999992
   157   3      58.305092976000005      6.7545282950000001      6.3158923409999996
   158   3            63.211107024      1.6994741149999997      5.5628888699999992
   159   3      64.325815632000015              4.17399567      8.9091749999999994
   160   3      60.275275632000003    0.053005534999999986      2.9696062109999999
   161   1      69.016340952000007      3.7182495149999997      2.9696062109999999
   162   1      64.965800951999995     0.50849807499999999      8.9091749999999994
   163   1      72.752559047999995      7.9452507199999998      2.9696062109999999
   164   1      68.702019048000011              4.73549928      8.9091749999999994
   165   2      68.859179999999995                       0             5.939568789
   166   2      64.808640000000011      4.2270012050000005                       0
   167   2      64.808640000000011      4.2270012050000005             5.939568789
   168   2      68.859179999999995                       0                       0
   169   3      69.342004368000005      8.4009968749999988      8.9091749999999994
   170   3      65.291464368000007      4.2797531249999992      2.9696062109999999
   171   3      71.312187023999996      1.6994741149999997     0.37667991900000003
   172   3      66.406172976000008      6.7545282950000001      11.502457658999999
   173   3      67.261647023999998              2.52752709      11.502457658999999
   174   3      70.456712976000006      5.9262217049999997     0.37667991900000003
   175   3      67.261647023999998              2.52752709      6.3158923409999996
   176   3      70.456712976000006      5.9262217049999997      5.5628888699999992
   177   3      66.406172976000008      6.7545282950000001      6.3158923409999996
   178   3      71.312187023999996      1.6994741149999997      5.5628888699999992
   179   3      72.426895631999997              4.17399567      8.9091749999999994
   180   3      68.376355631999999    0.053005534999999986      2.9696062109999999
   181   1      77.117420952000018      3.7182495149999997      2.9696062109999999
   182   1      73.066880952000005     0.50849807499999999      8.9091749999999994
   183   1      80.853639048000005      7.9452507199999998      2.9696062109999999
   184   1      76.803099048000007              4.73549928      8.9091749999999994
   185   2      76.960260000000005                       0             5.939568789
   186   2      72.909720000000007      4.2270012050000005                       0
   187   2      72.909720000000007      4.2270012050000005             5.939568789
   188   2      76.960260000000005                       0                       0
   189   3      77.443084368000001      8.4009968749999988      8.9091749999999994
   190   3      73.392544368000017      4.2797531249999992      2.9696062109999999
   191   3      79.413267024000021      1.6994741149999997     0.37667991900000003
   192   3      74.507252976000004      6.7545282950000001      11.502457658999999
   193   3      75.362727024000009              2.52752709      11.502457658999999
   194   3      78.557792976000002      5.9262217049999997     0.37667991900000003
   195   3      75.362727024000009              2.52752709      6.3158923409999996
   196   3      78.557792976000002      5.9262217049999997      5.5628888699999992
   197   3      74.507252976000004      6.7545282950000001      6.3158923409999996
   198   3      79.413267024000021      1.6994741149999997      5.5628888699999992
   199   3      80.527975632000022              4.17399567      8.9091749999999994
   200   3      76.477435631999995    0.053005534999999986      2.9696062109999999
   201   1      85.218500952000014      3.7182495149999997      2.9696062109999999
   202   1      81.167960952000001     0.50849807499999999      8.9091749999999994
   203   1      88.954719048000001      7.9452507199999998      2.9696062109999999
   204   1      84.904179048000003              4.73549928      8.9091749999999994
   205   2      85.061340000000001                       0             5.939568789
   206   2      81.010800000000003      4.2270012050000005                       0
   207   2      81.010800000000003      4.2270012050000005             5.939568789
   208   2      85.061340000000001                       0                       0
   209   3      85.544164368000025      8.4009968749999988      8.9091749999999994
   210   3      81.493624367999999      4.2797531249999992      2.9696062109999999
   211   3      87.514347024000017      1.6994741149999997     0.37667991900000003
   212   3            82.608332976      6.7545282950000001      11.502457658999999
   213   3      83.463807024000005              2.52752709      11.502457658999999
   214   3      86.658872975999998      5.9262217049999997     0.37667991900000003
   215   3      83.463807024000005              2.52752709      6.3158923409999996
   216   3      86.658872975999998      5.9262217049999997      5.5628888699999992
   217   3            82.608332976      6.7545282950000001      6.3158923409999996
   218   3      87.514347024000017      1.6994741149999997      5.5628888699999992
   219   3      88.629055631999989              4.17399567      8.9091749999999994
   220   3      84.578515632000006    0.053005534999999986      2.9696062109999999
   221   1      93.319580951999995      3.7182495149999997      2.9696062109999999
   222   1      89.269040951999997     0.50849807499999999      8.9091749999999994
   223   1      97.055799047999997      7.9452507199999998      2.9696062109999999
   224   1      93.005259048000028              4.73549928      8.9091749999999994
   225   2      93.162419999999997                       0             5.939568789
   226   2      89.111880000000014      4.2270012050000005                       0
   227   2      89.111880000000014      4.2270012050000005             5.939568789
   228   2      93.162419999999997                       0                       0
   229   3      93.645244368000007      8.4009968749999988      8.9091749999999994
   230   3      89.594704368000009      4.2797531249999992      2.9696062109999999
   231   3      95.615427023999999      1.6994741149999997     0.37667991900000003
   232   3       90.70941297600001      6.7545282950000001      11.502457658999999
   233   3      91.564887024000001              2.52752709      11.502457658999999
   234   3      94.759952976000008      5.9262217049999997     0.37667991900000003
   235   3      91.564887024000001              2.52752709      6.3158923409999996
   236   3      94.759952976000008      5.9262217049999997      5.5628888699999992
   237   3       90.70941297600001      6.7545282950000001      6.3158923409999996
   238   3      95.615427023999999      1.6994741149999997      5.5628888699999992
   239   3            96.730135632              4.17399567      8.9091749999999994
   240   3      92.679595632000002    0.053005534999999986      2.9696062109999999
   241   1      101.42066095200001      3.7182495149999997      2.9696062109999999
   242   1      97.370120952000022     0.50849807499999999      8.9091749999999994
   243   1      105.15687904800002      7.9452507199999998      2.9696062109999999
   244   1           101.106339048              4.73549928      8.9091749999999994
   245   2      101.26350000000002                       0             5.939568789
   246   2      97.212959999999995      4.2270012050000005                       0
   247   2      97.212959999999995      4.2270012050000005             5.939568789
   248   2      101.26350000000002                       0                       0
   249   3           101.746324368      8.4009968749999988      8.9091749999999994
   250   3      97.695784367999991      4.2797531249999992      2.9696062109999999
   251   3      103.71650702400001      1.6994741149999997     0.37667991900000003
   252   3      98.810492975999992      6.7545282950000001      11.502457658999999
   253   3      99.665967024000025              2.52752709      11.502457658999999
   254   3      102.86103297600002      5.9262217049999997     0.37667991900000003
   255   3      99.665967024000025              2.52752709      6.3158923409999996
   256   3      102.86103297600002      5.9262217049999997      5.5628888699999992
   257   3      98.810492975999992      6.7545282950000001      6.3158923409999996
   258   3      103.71650702400001      1.6994741149999997      5.5628888699999992
   259   3      104.83121563200001              4.17399567      8.9091749999999994
   260   3      100.78067563200003    0.053005534999999986      2.9696062109999999
   261   1      109.52174095200002      3.7182495149999997      2.9696062109999999
   262   1      105.47120095200003     0.50849807499999999      8.9091749999999994
   263   1      113.25795904800003      7.9452507199999998      2.9696062109999999
   264   1      109.20741904800001              4.73549928      8.9091749999999994
   265   2      109.36458000000003                       0             5.939568789
   266   2      105.31404000000001      4.2270012050000005                       0
   267   2      105.31404000000001      4.2270012050000005             5.939568789
   268   2      109.36458000000003                       0                       0
   269   3      109.84740436800003      8.4009968749999988      8.9091749999999994
   270   3           105.796864368      4.2797531249999992      2.9696062109999999
   271   3      111.81758702400002      1.6994741149999997     0.37667991900000003
   272   3           106.911572976      6.7545282950000001      11.502457658999999
   273   3      107.76704702399999              2.52752709      11.502457658999999
   274   3      110.96211297600003      5.9262217049999997     0.37667991900000003
   275   3      107.76704702399999              2.52752709      6.3158923409999996
   276   3      110.96211297600003      5.9262217049999997      5.5628888699999992
   277   3           106.911572976      6.7545282950000001      6.3158923409999996
   278   3      111.81758702400002      1.6994741149999997      5.5628888699999992
   279   3      112.93229563200002              4.17399567      8.9091749999999994
   280   3      108.88175563199999    0.053005534999999986      2.9696062109999999
   281   1      117.62282095200003      3.7182495149999997      2.9696062109999999
   282   1           113.572280952     0.50849807499999999      8.9091749999999994
   283   1           121.359039048      7.9452507199999998      2.9696062109999999
   284   1      117.30849904800002              4.73549928      8.9091749999999994
   285   2               117.46566                       0             5.939568789
   286   2      113.41512000000002      4.2270012050000005                       0
   287   2      113.41512000000002      4.2270012050000005             5.939568789
   288   2               117.46566                       0                       0
   289   3           117.948484368      8.4009968749999988      8.9091749999999994
   290   3      113.89794436800001      4.2797531249999992      2.9696062109999999
   291   3           119.918667024      1.6994741149999997     0.37667991900000003
   292   3      115.01265297600001      6.7545282950000001      11.502457658999999
   293   3           115.868127024              2.52752709      11.502457658999999
   294   3           119.063192976      5.9262217049999997     0.37667991900000003
   295   3           115.868127024              2.52752709      6.3158923409999996
   296   3           119.063192976      5.9262217049999997      5.5628888699999992
   297   3      115.01265297600001      6.7545282950000001      6.3158923409999996
   298   3           119.918667024      1.6994741149999997      5.5628888699999992
   299   3           121.033375632              4.17399567      8.9091749999999994
   300   3           116.982835632    0.053005534999999986      2.9696062109999999
   301   1      125.72390095200001      3.7182495149999997      2.9696062109999999
   302   1      121.67336095200001     0.50849807499999999      8.9091749999999994
   303   1           129.460119048      7.9452507199999998      2.9696062109999999
   304   1           125.409579048              4.73549928      8.9091749999999994
   305   2      125.56674000000002                       0             5.939568789
   306   2                121.5162      4.2270012050000005                       0
   307   2                121.5162      4.2270012050000005             5.939568789
   308   2      125.56674000000002                       0                       0
   309   3      126.04956436800001      8.4009968749999988      8.9091749999999994
   310   3      121.99902436800002      4.2797531249999992      2.9696062109999999
   311   3           128.019747024      1.6994741149999997     0.37667991900000003
   312   3      123.11373297600002      6.7545282950000001      11.502457658999999
   313   3      123.96920702400003              2.52752709      11.502457658999999
   314   3      127.16427297600002      5.9262217049999997     0.37667991900000003
   315   3      123.96920702400003              2.52752709      6.3158923409999996
   316   3      127.16427297600002      5.9262217049999997      5.5628888699999992
   317   3      123.11373297600002      6.7545282950000001      6.3158923409999996
   318   3           128.019747024      1.6994741149999997      5.5628888699999992
   319   3      129.13445563200003              4.17399567      8.9091749999999994
   320   3      125.08391563200003    0.053005534999999986      2.9696062109999999
   321   1      133.82498095200003      3.7182495149999997      2.9696062109999999
   322   1      129.77444095199999     0.50849807499999999      8.9091749999999994
   323   1      137.56119904799999      7.9452507199999998      2.9696062109999999
   324   1      133.51065904800001              4.73549928      8.9091749999999994
   325   2      133.66782000000001                       0             5.939568789
   326   2      129.61728000000002      4.2270012050000005                       0
   327   2      129.61728000000002      4.2270012050000005             5.939568789
   328   2      133.66782000000001                       0                       0
   329   3           134.150644368      8.4009968749999988      8.9091749999999994
   330   3      130.10010436800002      4.2797531249999992      2.9696062109999999
   331   3      136.12082702399999      1.6994741149999997     0.37667991900000003
   332   3      131.21481297600002      6.7545282950000001      11.502457658999999
   333   3      132.07028702400001              2.52752709      11.502457658999999
   334   3           135.265352976      5.9262217049999997     0.37667991900000003
   335   3      132.07028702400001              2.52752709      6.3158923409999996
   336   3           135.265352976      5.9262217049999997      5.5628888699999992
   337   3      131.21481297600002      6.7545282950000001      6.3158923409999996
   338   3      136.12082702399999      1.6994741149999997      5.5628888699999992
   339   3      137.23553563199999              4.17399567      8.9091749999999994
   340   3      133.18499563200001    0.053005534999999986      2.9696062109999999
   341   1           141.926060952      3.7182495149999997      2.9696062109999999
   342   1      137.87552095200002     0.50849807499999999      8.9091749999999994
   343   1      145.66227904800002      7.9452507199999998      2.9696062109999999
   344   1      141.61173904800003              4.73549928      8.9091749999999994
   345   2                141.7689                       0             5.939568789
   346   2      137.71835999999999      4.2270012050000005                       0
   347   2      137.71835999999999      4.2270012050000005             5.939568789
   348   2                141.7689                       0                       0
   349   3           142.251724368      8.4009968749999988      8.9091749999999994
   350   3      138.20118436799999      4.2797531249999992      2.9696062109999999
   351   3      144.22190702400002      1.6994741149999997     0.37667991900000003
   352   3      139.31589297599999      6.7545282950000001      11.502457658999999
   353   3      140.17136702400001              2.52752709      11.502457658999999
   354   3           143.366432976      5.9262217049999997     0.37667991900000003
   355   3      140.17136702400001              2.52752709      6.3158923409999996
   356   3           143.366432976      5.9262217049999997      5.5628888699999992
   357   3      139.31589297599999      6.7545282950000001      6.3158923409999996
   358   3      144.22190702400002      1.6994741149999997      5.5628888699999992