/home/hsh/learnmd/study/1/dpgen/CsPbBr3/lammps/redao/dp/pnma/20,50,80-3-3/25-3-3pnma.lmp (written by ASE) 

4500 	 atoms 
3  atom types
0.0      202.52699999999999  xlo xhi
0.0      25.361499999999999  ylo yhi
0.0      35.636699999999998  zlo zhi


Atoms 

     1   1      4.2085110599999993      3.7182495149999997      2.9696062109999999
     2   1              0.15797106     0.50849807499999999      8.9091749999999994
     3   1      7.9431089399999992      7.9452507199999998      2.9696062109999999
     4   1      3.8925689399999994              4.73549928      8.9091749999999994
     5   2      4.0505399999999998                       0             5.939568789
     6   2                       0      4.2270012050000005                       0
     7   2                       0      4.2270012050000005             5.939568789
     8   2      4.0505399999999998                       0                       0
     9   3      4.5345795299999994      8.4009968749999988      8.9091749999999994
    10   3     0.48403952999999994      4.2797531249999992      2.9696062109999999
    11   3      6.5031419699999997      1.6994741149999997     0.37667991900000003
    12   3      1.5979380299999995      6.7545282950000001      11.502457658999999
    13   3      2.4526019699999995              2.52752709      11.502457658999999
    14   3      5.6484780299999988      5.9262217049999997     0.37667991900000003
    15   3      2.4526019699999995              2.52752709      6.3158923409999996
    16   3      5.6484780299999988      5.9262217049999997      5.5628888699999992
    17   3      1.5979380299999995      6.7545282950000001      6.3158923409999996
    18   3      6.5031419699999997      1.6994741149999997      5.5628888699999992
    19   3      7.6170404699999992              4.17399567      8.9091749999999994
    20   3      3.5665004699999994    0.053005534999999986      2.9696062109999999
    21   1      12.309591059999997      3.7182495149999997      2.9696062109999999
    22   1      8.2590510599999991     0.50849807499999999      8.9091749999999994
    23   1      16.044188939999994      7.9452507199999998      2.9696062109999999
    24   1             11.99364894              4.73549928      8.9091749999999994
    25   2      12.151619999999999                       0             5.939568789
    26   2      8.1010799999999996      4.2270012050000005                       0
    27   2      8.1010799999999996      4.2270012050000005             5.939568789
    28   2      12.151619999999999                       0                       0
    29   3             12.63565953      8.4009968749999988      8.9091749999999994
    30   3      8.5851195299999983      4.2797531249999992      2.9696062109999999
    31   3      14.604221969999998      1.6994741149999997     0.37667991900000003
    32   3      9.6990180299999977      6.7545282950000001      11.502457658999999
    33   3      10.553681969999998              2.52752709      11.502457658999999
    34   3      13.749558030000001      5.9262217049999997     0.37667991900000003
    35   3      10.553681969999998              2.52752709      6.3158923409999996
    36   3      13.749558030000001      5.9262217049999997      5.5628888699999992
    37   3      9.6990180299999977      6.7545282950000001      6.3158923409999996
    38   3      14.604221969999998      1.6994741149999997      5.5628888699999992
    39   3      15.718120469999999              4.17399567      8.9091749999999994
    40   3      11.667580469999999    0.053005534999999986      2.9696062109999999
    41   1      20.410671059999999      3.7182495149999997      2.9696062109999999
    42   1      16.360131060000001     0.50849807499999999      8.9091749999999994
    43   1      24.145268940000001      7.9452507199999998      2.9696062109999999
    44   1             20.09472894              4.73549928      8.9091749999999994
    45   2      20.252700000000001                       0             5.939568789
    46   2      16.202159999999999      4.2270012050000005                       0
    47   2      16.202159999999999      4.2270012050000005             5.939568789
    48   2      20.252700000000001                       0                       0
    49   3      20.736739529999994      8.4009968749999988      8.9091749999999994
    50   3      16.686199529999996      4.2797531249999992      2.9696062109999999
    51   3      22.705301969999997      1.6994741149999997     0.37667991900000003
    52   3      17.800098029999994      6.7545282950000001      11.502457658999999
    53   3      18.654761969999999              2.52752709      11.502457658999999
    54   3      21.850638029999999      5.9262217049999997     0.37667991900000003
    55   3      18.654761969999999              2.52752709      6.3158923409999996
    56   3      21.850638029999999      5.9262217049999997      5.5628888699999992
    57   3      17.800098029999994      6.7545282950000001      6.3158923409999996
    58   3      22.705301969999997      1.6994741149999997      5.5628888699999992
    59   3      23.819200469999998              4.17399567      8.9091749999999994
    60   3             19.76866047    0.053005534999999986      2.9696062109999999
    61   1      28.511751059999991      3.7182495149999997      2.9696062109999999
    62   1      24.461211059999997     0.50849807499999999      8.9091749999999994
    63   1       32.24634893999999      7.9452507199999998      2.9696062109999999
    64   1      28.195808939999996              4.73549928      8.9091749999999994
    65   2                28.35378                       0             5.939568789
    66   2      24.303239999999999      4.2270012050000005                       0
    67   2      24.303239999999999      4.2270012050000005             5.939568789
    68   2                28.35378                       0                       0
    69   3      28.837819529999997      8.4009968749999988      8.9091749999999994
    70   3      24.787279529999999      4.2797531249999992      2.9696062109999999
    71   3      30.806381969999997      1.6994741149999997     0.37667991900000003
    72   3      25.901178030000001      6.7545282950000001      11.502457658999999
    73   3      26.755841969999999              2.52752709      11.502457658999999
    74   3      29.951718029999991      5.9262217049999997     0.37667991900000003
    75   3      26.755841969999999              2.52752709      6.3158923409999996
    76   3      29.951718029999991      5.9262217049999997      5.5628888699999992
    77   3      25.901178030000001      6.7545282950000001      6.3158923409999996
    78   3      30.806381969999997      1.6994741149999997      5.5628888699999992
    79   3      31.920280469999998              4.17399567      8.9091749999999994
    80   3             27.86974047    0.053005534999999986      2.9696062109999999
    81   1      36.612831059999998      3.7182495149999997      2.9696062109999999
    82   1             32.56229106     0.50849807499999999      8.9091749999999994
    83   1             40.34742894      7.9452507199999998      2.9696062109999999
    84   1      36.296888939999988              4.73549928      8.9091749999999994
    85   2      36.454859999999996                       0             5.939568789
    86   2      32.404319999999998      4.2270012050000005                       0
    87   2      32.404319999999998      4.2270012050000005             5.939568789
    88   2      36.454859999999996                       0                       0
    89   3      36.938899529999993      8.4009968749999988      8.9091749999999994
    90   3      32.888359530000002      4.2797531249999992      2.9696062109999999
    91   3             38.90746197      1.6994741149999997     0.37667991900000003
    92   3             34.00225803      6.7545282950000001      11.502457658999999
    93   3      34.856921970000002              2.52752709      11.502457658999999
    94   3      38.052798029999998      5.9262217049999997     0.37667991900000003
    95   3      34.856921970000002              2.52752709      6.3158923409999996
    96   3      38.052798029999998      5.9262217049999997      5.5628888699999992
    97   3             34.00225803      6.7545282950000001      6.3158923409999996
    98   3             38.90746197      1.6994741149999997      5.5628888699999992
    99   3      40.021360469999991              4.17399567      8.9091749999999994
   100   3      35.970820469999992    0.053005534999999986      2.9696062109999999
   101   1      44.713911060000001      3.7182495149999997      2.9696062109999999
   102   1      40.663371059999996     0.50849807499999999      8.9091749999999994
   103   1      48.448508939999996      7.9452507199999998      2.9696062109999999
   104   1      44.397968939999998              4.73549928      8.9091749999999994
   105   2                44.55594                       0             5.939568789
   106   2      40.505400000000002      4.2270012050000005                       0
   107   2      40.505400000000002      4.2270012050000005             5.939568789
   108   2                44.55594                       0                       0
   109   3      45.039979529999989      8.4009968749999988      8.9091749999999994
   110   3      40.989439529999991      4.2797531249999992      2.9696062109999999
   111   3      47.008541969999996      1.6994741149999997     0.37667991900000003
   112   3      42.103338029999996      6.7545282950000001      11.502457658999999
   113   3      42.958001969999998              2.52752709      11.502457658999999
   114   3      46.153878030000001      5.9262217049999997     0.37667991900000003
   115   3      42.958001969999998              2.52752709      6.3158923409999996
   116   3      46.153878030000001      5.9262217049999997      5.5628888699999992
   117   3      42.103338029999996      6.7545282950000001      6.3158923409999996
   118   3      47.008541969999996      1.6994741149999997      5.5628888699999992
   119   3      48.122440469999987              4.17399567      8.9091749999999994
   120   3      44.071900469999989    0.053005534999999986      2.9696062109999999
   121   1       52.81499105999999      3.7182495149999997      2.9696062109999999
   122   1      48.764451059999999     0.50849807499999999      8.9091749999999994
   123   1      56.549588939999992      7.9452507199999998      2.9696062109999999
   124   1      52.499048939999987              4.73549928      8.9091749999999994
   125   2      52.657019999999989                       0             5.939568789
   126   2      48.606479999999998      4.2270012050000005                       0
   127   2      48.606479999999998      4.2270012050000005             5.939568789
   128   2      52.657019999999989                       0                       0
   129   3             53.14105953      8.4009968749999988      8.9091749999999994
   130   3      49.090519529999987      4.2797531249999992      2.9696062109999999
   131   3      55.109621969999999      1.6994741149999997     0.37667991900000003
   132   3      50.204418029999999      6.7545282950000001      11.502457658999999
   133   3      51.059081969999987              2.52752709      11.502457658999999
   134   3       54.25495802999999      5.9262217049999997     0.37667991900000003
   135   3      51.059081969999987              2.52752709      6.3158923409999996
   136   3       54.25495802999999      5.9262217049999997      5.5628888699999992
   137   3      50.204418029999999      6.7545282950000001      6.3158923409999996
   138   3      55.109621969999999      1.6994741149999997      5.5628888699999992
   139   3      56.223520470000004              4.17399567      8.9091749999999994
   140   3      52.172980469999999    0.053005534999999986      2.9696062109999999
   141   1      60.916071059999986      3.7182495149999997      2.9696062109999999
   142   1      56.865531059999981     0.50849807499999999      8.9091749999999994
   143   1      64.650668940000003      7.9452507199999998      2.9696062109999999
   144   1      60.600128939999983              4.73549928      8.9091749999999994
   145   2      60.758099999999985                       0             5.939568789
   146   2      56.707560000000001      4.2270012050000005                       0
   147   2      56.707560000000001      4.2270012050000005             5.939568789
   148   2      60.758099999999985                       0                       0
   149   3      61.242139529999996      8.4009968749999988      8.9091749999999994
   150   3      57.191599529999991      4.2797531249999992      2.9696062109999999
   151   3      63.210701969999995      1.6994741149999997     0.37667991900000003
   152   3      58.305498029999995      6.7545282950000001      11.502457658999999
   153   3      59.160161969999983              2.52752709      11.502457658999999
   154   3      62.356038029999986      5.9262217049999997     0.37667991900000003
   155   3      59.160161969999983              2.52752709      6.3158923409999996
   156   3      62.356038029999986      5.9262217049999997      5.5628888699999992
   157   3      58.305498029999995      6.7545282950000001      6.3158923409999996
   158   3      63.210701969999995      1.6994741149999997      5.5628888699999992
   159   3      64.324600469999979              4.17399567      8.9091749999999994
   160   3      60.274060469999995    0.053005534999999986      2.9696062109999999
   161   1      69.017151060000003      3.7182495149999997      2.9696062109999999
   162   1      64.966611059999991     0.50849807499999999      8.9091749999999994
   163   1      72.751748939999999      7.9452507199999998      2.9696062109999999
   164   1      68.701208940000001              4.73549928      8.9091749999999994
   165   2      68.859179999999995                       0             5.939568789
   166   2      64.808639999999997      4.2270012050000005                       0
   167   2      64.808639999999997      4.2270012050000005             5.939568789
   168   2      68.859179999999995                       0                       0
   169   3      69.343219529999985      8.4009968749999988      8.9091749999999994
   170   3      65.292679530000001      4.2797531249999992      2.9696062109999999
   171   3      71.311781969999984      1.6994741149999997     0.37667991900000003
   172   3      66.406578030000006      6.7545282950000001      11.502457658999999
   173   3             67.26124197              2.52752709      11.502457658999999
   174   3      70.457118029999975      5.9262217049999997     0.37667991900000003
   175   3             67.26124197              2.52752709      6.3158923409999996
   176   3      70.457118029999975      5.9262217049999997      5.5628888699999992
   177   3      66.406578030000006      6.7545282950000001      6.3158923409999996
   178   3      71.311781969999984      1.6994741149999997      5.5628888699999992
   179   3      72.425680469999975              4.17399567      8.9091749999999994
   180   3      68.375140470000005    0.053005534999999986      2.9696062109999999
   181   1      77.118231059999999      3.7182495149999997      2.9696062109999999
   182   1      73.067691059999987     0.50849807499999999      8.9091749999999994
   183   1      80.852828939999981      7.9452507199999998      2.9696062109999999
   184   1      76.802288939999997              4.73549928      8.9091749999999994
   185   2      76.960259999999991                       0             5.939568789
   186   2      72.909719999999993      4.2270012050000005                       0
   187   2      72.909719999999993      4.2270012050000005             5.939568789
   188   2      76.960259999999991                       0                       0
   189   3      77.444299529999981      8.4009968749999988      8.9091749999999994
   190   3      73.393759529999997      4.2797531249999992      2.9696062109999999
   191   3       79.41286196999998      1.6994741149999997     0.37667991900000003
   192   3      74.507658029999988      6.7545282950000001      11.502457658999999
   193   3      75.362321969999996              2.52752709      11.502457658999999
   194   3             78.55819803      5.9262217049999997     0.37667991900000003
   195   3      75.362321969999996              2.52752709      6.3158923409999996
   196   3             78.55819803      5.9262217049999997      5.5628888699999992
   197   3      74.507658029999988      6.7545282950000001      6.3158923409999996
   198   3       79.41286196999998      1.6994741149999997      5.5628888699999992
   199   3      80.526760469999999              4.17399567      8.9091749999999994
   200   3      76.476220470000001    0.053005534999999986      2.9696062109999999
   201   1      85.219311059999995      3.7182495149999997      2.9696062109999999
   202   1      81.168771059999983     0.50849807499999999      8.9091749999999994
   203   1      88.953908939999977      7.9452507199999998      2.9696062109999999
   204   1      84.903368939999993              4.73549928      8.9091749999999994
   205   2      85.061339999999987                       0             5.939568789
   206   2      81.010800000000003      4.2270012050000005                       0
   207   2      81.010800000000003      4.2270012050000005             5.939568789
   208   2      85.061339999999987                       0                       0
   209   3      85.545379529999977      8.4009968749999988      8.9091749999999994
   210   3      81.494839529999993      4.2797531249999992      2.9696062109999999
   211   3      87.513941969999976      1.6994741149999997     0.37667991900000003
   212   3      82.608738029999984      6.7545282950000001      11.502457658999999
   213   3      83.463401969999993              2.52752709      11.502457658999999
   214   3      86.659278029999996      5.9262217049999997     0.37667991900000003
   215   3      83.463401969999993              2.52752709      6.3158923409999996
   216   3      86.659278029999996      5.9262217049999997      5.5628888699999992
   217   3      82.608738029999984      6.7545282950000001      6.3158923409999996
   218   3      87.513941969999976      1.6994741149999997      5.5628888699999992
   219   3      88.627840469999995              4.17399567      8.9091749999999994
   220   3      84.577300469999997    0.053005534999999986      2.9696062109999999
   221   1      93.320391059999992      3.7182495149999997      2.9696062109999999
   222   1      89.269851059999979     0.50849807499999999      8.9091749999999994
   223   1      97.054988939999973      7.9452507199999998      2.9696062109999999
   224   1      93.004448940000003              4.73549928      8.9091749999999994
   225   2      93.162419999999983                       0             5.939568789
   226   2      89.111879999999999      4.2270012050000005                       0
   227   2      89.111879999999999      4.2270012050000005             5.939568789
   228   2      93.162419999999983                       0                       0
   229   3      93.646459530000001      8.4009968749999988      8.9091749999999994
   230   3      89.595919529999989      4.2797531249999992      2.9696062109999999
   231   3      95.615021969999972      1.6994741149999997     0.37667991900000003
   232   3       90.70981802999998      6.7545282950000001      11.502457658999999
   233   3      91.564481970000003              2.52752709      11.502457658999999
   234   3      94.760358029999992      5.9262217049999997     0.37667991900000003
   235   3      91.564481970000003              2.52752709      6.3158923409999996
   236   3      94.760358029999992      5.9262217049999997      5.5628888699999992
   237   3       90.70981802999998      6.7545282950000001      6.3158923409999996
   238   3      95.615021969999972      1.6994741149999997      5.5628888699999992
   239   3      96.728920469999991              4.17399567      8.9091749999999994
   240   3      92.678380469999979    0.053005534999999986      2.9696062109999999
   241   1      101.42147105999997      3.7182495149999997      2.9696062109999999
   242   1      97.370931059999975     0.50849807499999999      8.9091749999999994
   243   1            105.15606894      7.9452507199999998      2.9696062109999999
   244   1            101.10552894              4.73549928      8.9091749999999994
   245   2      101.26349999999998                       0             5.939568789
   246   2      97.212959999999995      4.2270012050000005                       0
   247   2      97.212959999999995      4.2270012050000005             5.939568789
   248   2      101.26349999999998                       0                       0
   249   3            101.74753953      8.4009968749999988      8.9091749999999994
   250   3      97.696999529999985      4.2797531249999992      2.9696062109999999
   251   3      103.71610196999998      1.6994741149999997     0.37667991900000003
   252   3      98.810898029999976      6.7545282950000001      11.502457658999999
   253   3      99.665561969999999              2.52752709      11.502457658999999
   254   3      102.86143802999999      5.9262217049999997     0.37667991900000003
   255   3      99.665561969999999              2.52752709      6.3158923409999996
   256   3      102.86143802999999      5.9262217049999997      5.5628888699999992
   257   3      98.810898029999976      6.7545282950000001      6.3158923409999996
   258   3      103.71610196999998      1.6994741149999997      5.5628888699999992
   259   3            104.83000047              4.17399567      8.9091749999999994
   260   3      100.77946046999998    0.053005534999999986      2.9696062109999999
   261   1            109.52255106      3.7182495149999997      2.9696062109999999
   262   1            105.47201106     0.50849807499999999      8.9091749999999994
   263   1      113.25714894000001      7.9452507199999998      2.9696062109999999
   264   1      109.20660893999998              4.73549928      8.9091749999999994
   265   2               109.36458                       0             5.939568789
   266   2      105.31403999999998      4.2270012050000005                       0
   267   2      105.31403999999998      4.2270012050000005             5.939568789
   268   2               109.36458                       0                       0
   269   3      109.84861953000001      8.4009968749999988      8.9091749999999994
   270   3            105.79807953      4.2797531249999992      2.9696062109999999
   271   3      111.81718196999999      1.6994741149999997     0.37667991900000003
   272   3      106.91197802999999      6.7545282950000001      11.502457658999999
   273   3      107.76664196999997              2.52752709      11.502457658999999
   274   3      110.96251802999997      5.9262217049999997     0.37667991900000003
   275   3      107.76664196999997              2.52752709      6.3158923409999996
   276   3      110.96251802999997      5.9262217049999997      5.5628888699999992
   277   3      106.91197802999999      6.7545282950000001      6.3158923409999996
   278   3      111.81718196999999      1.6994741149999997      5.5628888699999992
   279   3      112.93108046999998              4.17399567      8.9091749999999994
   280   3            108.88054047    0.053005534999999986      2.9696062109999999
   281   1      117.62363105999997      3.7182495149999997      2.9696062109999999
   282   1      113.57309105999998     0.50849807499999999      8.9091749999999994
   283   1      121.35822893999999      7.9452507199999998      2.9696062109999999
   284   1      117.30768893999996              4.73549928      8.9091749999999994
   285   2      117.46565999999999                       0             5.939568789
   286   2               113.41512      4.2270012050000005                       0
   287   2               113.41512      4.2270012050000005             5.939568789
   288   2      117.46565999999999                       0                       0
   289   3      117.94969952999999      8.4009968749999988      8.9091749999999994
   290   3      113.89915952999996      4.2797531249999992      2.9696062109999999
   291   3            119.91826197      1.6994741149999997     0.37667991900000003
   292   3            115.01305803      6.7545282950000001      11.502457658999999
   293   3      115.86772196999998              2.52752709      11.502457658999999
   294   3      119.06359802999998      5.9262217049999997     0.37667991900000003
   295   3      115.86772196999998              2.52752709      6.3158923409999996
   296   3      119.06359802999998      5.9262217049999997      5.5628888699999992
   297   3            115.01305803      6.7545282950000001      6.3158923409999996
   298   3            119.91826197      1.6994741149999997      5.5628888699999992
   299   3      121.03216046999999              4.17399567      8.9091749999999994
   300   3      116.98162046999998    0.053005534999999986      2.9696062109999999
   301   1      125.72471105999999      3.7182495149999997      2.9696062109999999
   302   1      121.67417105999999     0.50849807499999999      8.9091749999999994
   303   1            129.45930894      7.9452507199999998      2.9696062109999999
   304   1      125.40876893999997              4.73549928      8.9091749999999994
   305   2               125.56674                       0             5.939568789
   306   2      121.51619999999997      4.2270012050000005                       0
   307   2      121.51619999999997      4.2270012050000005             5.939568789
   308   2               125.56674                       0                       0
   309   3      126.05077952999997      8.4009968749999988      8.9091749999999994
   310   3      122.00023952999999      4.2797531249999992      2.9696062109999999
   311   3      128.01934196999997      1.6994741149999997     0.37667991900000003
   312   3      123.11413803000001      6.7545282950000001      11.502457658999999
   313   3            123.96880197              2.52752709      11.502457658999999
   314   3      127.16467802999996      5.9262217049999997     0.37667991900000003
   315   3            123.96880197              2.52752709      6.3158923409999996
   316   3      127.16467802999996      5.9262217049999997      5.5628888699999992
   317   3      123.11413803000001      6.7545282950000001      6.3158923409999996
   318   3      128.01934196999997      1.6994741149999997      5.5628888699999992
   319   3            129.13324047              4.17399567      8.9091749999999994
   320   3      125.08270046999999    0.053005534999999986      2.9696062109999999
   321   1            133.82579106      3.7182495149999997      2.9696062109999999
   322   1      129.77525105999996     0.50849807499999999      8.9091749999999994
   323   1      137.56038893999997      7.9452507199999998      2.9696062109999999
   324   1      133.50984893999998              4.73549928      8.9091749999999994
   325   2      133.66782000000001                       0             5.939568789
   326   2      129.61727999999999      4.2270012050000005                       0
   327   2      129.61727999999999      4.2270012050000005             5.939568789
   328   2      133.66782000000001                       0                       0
   329   3      134.15185952999997      8.4009968749999988      8.9091749999999994
   330   3      130.10131952999998      4.2797531249999992      2.9696062109999999
   331   3            136.12042197      1.6994741149999997     0.37667991900000003
   332   3      131.21521802999999      6.7545282950000001      11.502457658999999
   333   3      132.06988196999995              2.52752709      11.502457658999999
   334   3            135.26575803      5.9262217049999997     0.37667991900000003
   335   3      132.06988196999995              2.52752709      6.3158923409999996
   336   3            135.26575803      5.9262217049999997      5.5628888699999992
   337   3      131.21521802999999      6.7545282950000001      6.3158923409999996
   338   3            136.12042197      1.6994741149999997      5.5628888699999992
   339   3            137.23432047              4.17399567      8.9091749999999994
   340   3      133.18378046999999    0.053005534999999986      2.9696062109999999
   341   1            141.92687106      3.7182495149999997      2.9696062109999999
   342   1      137.87633106000001     0.50849807499999999      8.9091749999999994
   343   1      145.66146893999999      7.9452507199999998      2.9696062109999999
   344   1      141.61092893999995              4.73549928      8.9091749999999994
   345   2      141.76889999999995                       0             5.939568789
   346   2      137.71835999999999      4.2270012050000005                       0
   347   2      137.71835999999999      4.2270012050000005             5.939568789
   348   2      141.76889999999995                       0                       0
   349   3      142.25293952999999      8.4009968749999988      8.9091749999999994
   350   3      138.20239953000001      4.2797531249999992      2.9696062109999999
   351   3      144.22150196999996      1.6994741149999997     0.37667991900000003
   352   3      139.31629802999996      6.7545282950000001      11.502457658999999
   353   3      140.17096196999998              2.52752709      11.502457658999999
   354   3            143.36683803      5.9262217049999997     0.37667991900000003
   355   3      140.17096196999998              2.52752709      6.3158923409999996
   356   3            143.36683803      5.9262217049999997      5.5628888699999992
   357   3      139.31629802999996      6.7545282950000001      6.3158923409999996
   358   3      144.22150196999996      1.6994741149999997      5.5628888699999992