/home/hsh/learnmd/study/1/dpgen/CsPbBr3/lammps/redao/dp/pnma/20,50,80-3-3/40-3-3pnma.lmp (written by ASE) 

7200 	 atoms 
3  atom types
0.0      324.04309999999998  xlo xhi
0.0      25.361499999999999  ylo yhi
0.0      35.636699999999998  zlo zhi


Atoms 

     1   1      4.2093198689999998      3.7182495149999997      2.9696062109999999
     2   1             0.158781119     0.50849807499999999      8.9091749999999994
     3   1      7.9422963809999985      7.9452507199999998      2.9696062109999999
     4   1      3.8917576309999999              4.73549928      8.9091749999999994
     5   2      4.0505387500000003                       0             5.939568789
     6   2                       0      4.2270012050000005                       0
     7   2                       0      4.2270012050000005             5.939568789
     8   2      4.0505387500000003                       0                       0
     9   3      4.5333629689999997      8.4009968749999988      8.9091749999999994
    10   3             0.482824219      4.2797531249999992      2.9696062109999999
    11   3      6.5035450169999987      1.6994741149999997     0.37667991900000003
    12   3      1.5975324829999997      6.7545282950000001      11.502457658999999
    13   3      2.4530062670000001              2.52752709      11.502457658999999
    14   3      5.6480712329999987      5.9262217049999997     0.37667991900000003
    15   3      2.4530062670000001              2.52752709      6.3158923409999996
    16   3      5.6480712329999987      5.9262217049999997      5.5628888699999992
    17   3      1.5975324829999997      6.7545282950000001      6.3158923409999996
    18   3      6.5035450169999987      1.6994741149999997      5.5628888699999992
    19   3      7.6182532809999994              4.17399567      8.9091749999999994
    20   3             3.567714531    0.053005534999999986      2.9696062109999999
    21   1            12.310397369      3.7182495149999997      2.9696062109999999
    22   1      8.2598586189999992     0.50849807499999999      8.9091749999999994
    23   1      16.043373880999997      7.9452507199999998      2.9696062109999999
    24   1            11.992835131              4.73549928      8.9091749999999994
    25   2      12.151616249999996                       0             5.939568789
    26   2      8.1010775000000006      4.2270012050000005                       0
    27   2      8.1010775000000006      4.2270012050000005             5.939568789
    28   2      12.151616249999996                       0                       0
    29   3      12.634440468999996      8.4009968749999988      8.9091749999999994
    30   3             8.583901719      4.2797531249999992      2.9696062109999999
    31   3      14.604622516999999      1.6994741149999997     0.37667991900000003
    32   3       9.698609982999999      6.7545282950000001      11.502457658999999
    33   3            10.554083767              2.52752709      11.502457658999999
    34   3            13.749148733      5.9262217049999997     0.37667991900000003
    35   3            10.554083767              2.52752709      6.3158923409999996
    36   3            13.749148733      5.9262217049999997      5.5628888699999992
    37   3       9.698609982999999      6.7545282950000001      6.3158923409999996
    38   3      14.604622516999999      1.6994741149999997      5.5628888699999992
    39   3      15.719330780999998              4.17399567      8.9091749999999994
    40   3      11.668792030999997    0.053005534999999986      2.9696062109999999
    41   1      20.411474868999999      3.7182495149999997      2.9696062109999999
    42   1      16.360936118999998     0.50849807499999999      8.9091749999999994
    43   1      24.144451380999996      7.9452507199999998      2.9696062109999999
    44   1      20.093912630999998              4.73549928      8.9091749999999994
    45   2      20.252693749999999                       0             5.939568789
    46   2      16.202155000000001      4.2270012050000005                       0
    47   2      16.202155000000001      4.2270012050000005             5.939568789
    48   2      20.252693749999999                       0                       0
    49   3            20.735517969      8.4009968749999988      8.9091749999999994
    50   3      16.684979218999999      4.2797531249999992      2.9696062109999999
    51   3      22.705700016999998      1.6994741149999997     0.37667991900000003
    52   3            17.799687483      6.7545282950000001      11.502457658999999
    53   3            18.655161267              2.52752709      11.502457658999999
    54   3      21.850226233000001      5.9262217049999997     0.37667991900000003
    55   3            18.655161267              2.52752709      6.3158923409999996
    56   3      21.850226233000001      5.9262217049999997      5.5628888699999992
    57   3            17.799687483      6.7545282950000001      6.3158923409999996
    58   3      22.705700016999998      1.6994741149999997      5.5628888699999992
    59   3      23.820408280999995              4.17399567      8.9091749999999994
    60   3      19.769869530999998    0.053005534999999986      2.9696062109999999
    61   1      28.512552368999998      3.7182495149999997      2.9696062109999999
    62   1            24.462013619     0.50849807499999999      8.9091749999999994
    63   1      32.245528880999998      7.9452507199999998      2.9696062109999999
    64   1      28.194990131000001              4.73549928      8.9091749999999994
    65   2      28.353771249999998                       0             5.939568789
    66   2      24.303232499999993      4.2270012050000005                       0
    67   2      24.303232499999993      4.2270012050000005             5.939568789
    68   2      28.353771249999998                       0                       0
    69   3      28.836595468999999      8.4009968749999988      8.9091749999999994
    70   3      24.786056718999994      4.2797531249999992      2.9696062109999999
    71   3            30.806777517      1.6994741149999997     0.37667991900000003
    72   3      25.900764982999998      6.7545282950000001      11.502457658999999
    73   3      26.756238766999999              2.52752709      11.502457658999999
    74   3      29.951303732999992      5.9262217049999997     0.37667991900000003
    75   3      26.756238766999999              2.52752709      6.3158923409999996
    76   3      29.951303732999992      5.9262217049999997      5.5628888699999992
    77   3      25.900764982999998      6.7545282950000001      6.3158923409999996
    78   3            30.806777517      1.6994741149999997      5.5628888699999992
    79   3      31.921485780999994              4.17399567      8.9091749999999994
    80   3            27.870947031    0.053005534999999986      2.9696062109999999
    81   1      36.613629868999993      3.7182495149999997      2.9696062109999999
    82   1      32.563091118999999     0.50849807499999999      8.9091749999999994
    83   1      40.346606380999994      7.9452507199999998      2.9696062109999999
    84   1            36.296067631              4.73549928      8.9091749999999994
    85   2      36.454848749999996                       0             5.939568789
    86   2      32.404310000000002      4.2270012050000005                       0
    87   2      32.404310000000002      4.2270012050000005             5.939568789
    88   2      36.454848749999996                       0                       0
    89   3      36.937672968999998      8.4009968749999988      8.9091749999999994
    90   3      32.887134218999989      4.2797531249999992      2.9696062109999999
    91   3      38.907855016999989      1.6994741149999997     0.37667991900000003
    92   3      34.001842482999997      6.7545282950000001      11.502457658999999
    93   3      34.857316266999995              2.52752709      11.502457658999999
    94   3      38.052381232999998      5.9262217049999997     0.37667991900000003
    95   3      34.857316266999995              2.52752709      6.3158923409999996
    96   3      38.052381232999998      5.9262217049999997      5.5628888699999992
    97   3      34.001842482999997      6.7545282950000001      6.3158923409999996
    98   3      38.907855016999989      1.6994741149999997      5.5628888699999992
    99   3      40.022563280999996              4.17399567      8.9091749999999994
   100   3      35.972024530999995    0.053005534999999986      2.9696062109999999
   101   1      44.714707368999989      3.7182495149999997      2.9696062109999999
   102   1      40.664168618999994     0.50849807499999999      8.9091749999999994
   103   1      48.447683880999989      7.9452507199999998      2.9696062109999999
   104   1      44.397145130999995              4.73549928      8.9091749999999994
   105   2      44.555926249999992                       0             5.939568789
   106   2      40.505387499999998      4.2270012050000005                       0
   107   2      40.505387499999998      4.2270012050000005             5.939568789
   108   2      44.555926249999992                       0                       0
   109   3            45.038750469      8.4009968749999988      8.9091749999999994
   110   3      40.988211718999985      4.2797531249999992      2.9696062109999999
   111   3      47.008932516999998      1.6994741149999997     0.37667991900000003
   112   3      42.102919982999992      6.7545282950000001      11.502457658999999
   113   3      42.958393766999997              2.52752709      11.502457658999999
   114   3      46.153458733000001      5.9262217049999997     0.37667991900000003
   115   3      42.958393766999997              2.52752709      6.3158923409999996
   116   3      46.153458733000001      5.9262217049999997      5.5628888699999992
   117   3      42.102919982999992      6.7545282950000001      6.3158923409999996
   118   3      47.008932516999998      1.6994741149999997      5.5628888699999992
   119   3      48.123640780999999              4.17399567      8.9091749999999994
   120   3      44.073102030999998    0.053005534999999986      2.9696062109999999
   121   1      52.815784868999998      3.7182495149999997      2.9696062109999999
   122   1      48.765246119000004     0.50849807499999999      8.9091749999999994
   123   1      56.548761380999998      7.9452507199999998      2.9696062109999999
   124   1      52.498222630999983              4.73549928      8.9091749999999994
   125   2      52.657003750000001                       0             5.939568789
   126   2      48.606464999999986      4.2270012050000005                       0
   127   2      48.606464999999986      4.2270012050000005             5.939568789
   128   2      52.657003750000001                       0                       0
   129   3      53.139827968999995      8.4009968749999988      8.9091749999999994
   130   3      49.089289219000001      4.2797531249999992      2.9696062109999999
   131   3      55.110010016999986      1.6994741149999997     0.37667991900000003
   132   3      50.203997483000002      6.7545282950000001      11.502457658999999
   133   3      51.059471266999992              2.52752709      11.502457658999999
   134   3      54.254536232999996      5.9262217049999997     0.37667991900000003
   135   3      51.059471266999992              2.52752709      6.3158923409999996
   136   3      54.254536232999996      5.9262217049999997      5.5628888699999992
   137   3      50.203997483000002      6.7545282950000001      6.3158923409999996
   138   3      55.110010016999986      1.6994741149999997      5.5628888699999992
   139   3      56.224718280999987              4.17399567      8.9091749999999994
   140   3      52.174179530999993    0.053005534999999986      2.9696062109999999
   141   1      60.916862368999993      3.7182495149999997      2.9696062109999999
   142   1      56.866323618999999     0.50849807499999999      8.9091749999999994
   143   1      64.649838880999994      7.9452507199999998      2.9696062109999999
   144   1            60.599300131              4.73549928      8.9091749999999994
   145   2      60.758081249999996                       0             5.939568789
   146   2      56.707542499999995      4.2270012050000005                       0
   147   2      56.707542499999995      4.2270012050000005             5.939568789
   148   2      60.758081249999996                       0                       0
   149   3      61.240905468999983      8.4009968749999988      8.9091749999999994
   150   3      57.190366718999989      4.2797531249999992      2.9696062109999999
   151   3      63.211087516999996      1.6994741149999997     0.37667991900000003
   152   3       58.30507498299999      6.7545282950000001      11.502457658999999
   153   3      59.160548767000002              2.52752709      11.502457658999999
   154   3      62.355613732999984      5.9262217049999997     0.37667991900000003
   155   3      59.160548767000002              2.52752709      6.3158923409999996
   156   3      62.355613732999984      5.9262217049999997      5.5628888699999992
   157   3       58.30507498299999      6.7545282950000001      6.3158923409999996
   158   3      63.211087516999996      1.6994741149999997      5.5628888699999992
   159   3      64.325795780999997              4.17399567      8.9091749999999994
   160   3      60.275257031000002    0.053005534999999986      2.9696062109999999
   161   1      69.017939869000003      3.7182495149999997      2.9696062109999999
   162   1      64.967401119000002     0.50849807499999999      8.9091749999999994
   163   1      72.750916380999996      7.9452507199999998      2.9696062109999999
   164   1      68.700377630999995              4.73549928      8.9091749999999994
   165   2      68.859158749999992                       0             5.939568789
   166   2      64.808620000000005      4.2270012050000005                       0
   167   2      64.808620000000005      4.2270012050000005             5.939568789
   168   2      68.859158749999992                       0                       0
   169   3            69.341982969      8.4009968749999988      8.9091749999999994
   170   3      65.291444218999999      4.2797531249999992      2.9696062109999999
   171   3      71.312165016999998      1.6994741149999997     0.37667991900000003
   172   3            66.406152483      6.7545282950000001      11.502457658999999
   173   3      67.261626266999997              2.52752709      11.502457658999999
   174   3      70.456691233000001      5.9262217049999997     0.37667991900000003
   175   3      67.261626266999997              2.52752709      6.3158923409999996
   176   3      70.456691233000001      5.9262217049999997      5.5628888699999992
   177   3            66.406152483      6.7545282950000001      6.3158923409999996
   178   3      71.312165016999998      1.6994741149999997      5.5628888699999992
   179   3      72.426873280999985              4.17399567      8.9091749999999994
   180   3      68.376334530999998    0.053005534999999986      2.9696062109999999
   181   1      77.119017368999991      3.7182495149999997      2.9696062109999999
   182   1       73.06847861899999     0.50849807499999999      8.9091749999999994
   183   1      80.851993880999999      7.9452507199999998      2.9696062109999999
   184   1      76.801455130999997              4.73549928      8.9091749999999994
   185   2      76.960236249999994                       0             5.939568789
   186   2      72.909697499999993      4.2270012050000005                       0
   187   2      72.909697499999993      4.2270012050000005             5.939568789
   188   2      76.960236249999994                       0                       0
   189   3      77.443060469000002      8.4009968749999988      8.9091749999999994
   190   3      73.392521719000001      4.2797531249999992      2.9696062109999999
   191   3            79.413242517      1.6994741149999997     0.37667991900000003
   192   3      74.507229982999988      6.7545282950000001      11.502457658999999
   193   3      75.362703766999999              2.52752709      11.502457658999999
   194   3      78.557768733000003      5.9262217049999997     0.37667991900000003
   195   3      75.362703766999999              2.52752709      6.3158923409999996
   196   3      78.557768733000003      5.9262217049999997      5.5628888699999992
   197   3      74.507229982999988      6.7545282950000001      6.3158923409999996
   198   3            79.413242517      1.6994741149999997      5.5628888699999992
   199   3      80.527950781000001              4.17399567      8.9091749999999994
   200   3            76.477412031    0.053005534999999986      2.9696062109999999
   201   1      85.220094868999993      3.7182495149999997      2.9696062109999999
   202   1      81.169556118999992     0.50849807499999999      8.9091749999999994
   203   1      88.953071380999987      7.9452507199999998      2.9696062109999999
   204   1            84.902532631              4.73549928      8.9091749999999994
   205   2      85.061313749999997                       0             5.939568789
   206   2      81.010774999999995      4.2270012050000005                       0
   207   2      81.010774999999995      4.2270012050000005             5.939568789
   208   2      85.061313749999997                       0                       0
   209   3      85.544137968999976      8.4009968749999988      8.9091749999999994
   210   3      81.493599218999989      4.2797531249999992      2.9696062109999999
   211   3      87.514320016999989      1.6994741149999997     0.37667991900000003
   212   3       82.60830748299999      6.7545282950000001      11.502457658999999
   213   3      83.463781267000002              2.52752709      11.502457658999999
   214   3      86.658846232999991      5.9262217049999997     0.37667991900000003
   215   3      83.463781267000002              2.52752709      6.3158923409999996
   216   3      86.658846232999991      5.9262217049999997      5.5628888699999992
   217   3       82.60830748299999      6.7545282950000001      6.3158923409999996
   218   3      87.514320016999989      1.6994741149999997      5.5628888699999992
   219   3      88.629028280999989              4.17399567      8.9091749999999994
   220   3      84.578489531000002    0.053005534999999986      2.9696062109999999
   221   1      93.321172368999981      3.7182495149999997      2.9696062109999999
   222   1       89.27063361899998     0.50849807499999999      8.9091749999999994
   223   1      97.054148880999975      7.9452507199999998      2.9696062109999999
   224   1      93.003610130999988              4.73549928      8.9091749999999994
   225   2      93.162391249999985                       0             5.939568789
   226   2      89.111852499999983      4.2270012050000005                       0
   227   2      89.111852499999983      4.2270012050000005             5.939568789
   228   2      93.162391249999985                       0                       0
   229   3      93.645215469000007      8.4009968749999988      8.9091749999999994
   230   3      89.594676719000006      4.2797531249999992      2.9696062109999999
   231   3      95.615397516999991      1.6994741149999997     0.37667991900000003
   232   3      90.709384982999978      6.7545282950000001      11.502457658999999
   233   3       91.56485876699999              2.52752709      11.502457658999999
   234   3      94.759923733000008      5.9262217049999997     0.37667991900000003
   235   3       91.56485876699999              2.52752709      6.3158923409999996
   236   3      94.759923733000008      5.9262217049999997      5.5628888699999992
   237   3      90.709384982999978      6.7545282950000001      6.3158923409999996
   238   3      95.615397516999991      1.6994741149999997      5.5628888699999992
   239   3      96.730105780999992              4.17399567      8.9091749999999994
   240   3      92.679567030999991    0.053005534999999986      2.9696062109999999
   241   1           101.422249869      3.7182495149999997      2.9696062109999999
   242   1      97.371711118999968     0.50849807499999999      8.9091749999999994
   243   1      105.15522638100001      7.9452507199999998      2.9696062109999999
   244   1      101.10468763099998              4.73549928      8.9091749999999994
   245   2      101.26346874999997                       0             5.939568789
   246   2      97.212929999999972      4.2270012050000005                       0
   247   2      97.212929999999972      4.2270012050000005             5.939568789
   248   2      101.26346874999997                       0                       0
   249   3           101.746292969      8.4009968749999988      8.9091749999999994
   250   3      97.695754218999994      4.2797531249999992      2.9696062109999999
   251   3      103.71647501700001      1.6994741149999997     0.37667991900000003
   252   3      98.810462482999966      6.7545282950000001      11.502457658999999
   253   3      99.665936266999978              2.52752709      11.502457658999999
   254   3           102.861001233      5.9262217049999997     0.37667991900000003
   255   3      99.665936266999978              2.52752709      6.3158923409999996
   256   3           102.861001233      5.9262217049999997      5.5628888699999992
   257   3      98.810462482999966      6.7545282950000001      6.3158923409999996
   258   3      103.71647501700001      1.6994741149999997      5.5628888699999992
   259   3      104.83118328099998              4.17399567      8.9091749999999994
   260   3      100.78064453099998    0.053005534999999986      2.9696062109999999
   261   1           109.523327369      3.7182495149999997      2.9696062109999999
   262   1           105.472788619     0.50849807499999999      8.9091749999999994
   263   1      113.25630388099999      7.9452507199999998      2.9696062109999999
   264   1      109.20576513099999              4.73549928      8.9091749999999994
   265   2            109.36454625                       0             5.939568789
   266   2             105.3140075      4.2270012050000005                       0
   267   2             105.3140075      4.2270012050000005             5.939568789
   268   2            109.36454625                       0                       0
   269   3           109.847370469      8.4009968749999988      8.9091749999999994
   270   3           105.796831719      4.2797531249999992      2.9696062109999999
   271   3           111.817552517      1.6994741149999997     0.37667991900000003
   272   3           106.911539983      6.7545282950000001      11.502457658999999
   273   3      107.76701376699997              2.52752709      11.502457658999999
   274   3           110.962078733      5.9262217049999997     0.37667991900000003
   275   3      107.76701376699997              2.52752709      6.3158923409999996
   276   3           110.962078733      5.9262217049999997      5.5628888699999992
   277   3           106.911539983      6.7545282950000001      6.3158923409999996
   278   3           111.817552517      1.6994741149999997      5.5628888699999992
   279   3      112.93226078099997              4.17399567      8.9091749999999994
   280   3      108.88172203099997    0.053005534999999986      2.9696062109999999
   281   1      117.62440486899999      3.7182495149999997      2.9696062109999999
   282   1           113.573866119     0.50849807499999999      8.9091749999999994
   283   1           121.357381381      7.9452507199999998      2.9696062109999999
   284   1      117.30684263099999              4.73549928      8.9091749999999994
   285   2      117.46562374999999                       0             5.939568789
   286   2      113.41508499999999      4.2270012050000005                       0
   287   2      113.41508499999999      4.2270012050000005             5.939568789
   288   2      117.46562374999999                       0                       0
   289   3      117.94844796899999      8.4009968749999988      8.9091749999999994
   290   3           113.897909219      4.2797531249999992      2.9696062109999999
   291   3           119.918630017      1.6994741149999997     0.37667991900000003
   292   3           115.012617483      6.7545282950000001      11.502457658999999
   293   3           115.868091267              2.52752709      11.502457658999999
   294   3      119.06315623299999      5.9262217049999997     0.37667991900000003
   295   3           115.868091267              2.52752709      6.3158923409999996
   296   3      119.06315623299999      5.9262217049999997      5.5628888699999992
   297   3           115.012617483      6.7545282950000001      6.3158923409999996
   298   3           119.918630017      1.6994741149999997      5.5628888699999992
   299   3           121.033338281              4.17399567      8.9091749999999994
   300   3           116.982799531    0.053005534999999986      2.9696062109999999
   301   1      125.72548236899999      3.7182495149999997      2.9696062109999999
   302   1      121.67494361899999     0.50849807499999999      8.9091749999999994
   303   1      129.45845888099998      7.9452507199999998      2.9696062109999999
   304   1           125.407920131              4.73549928      8.9091749999999994
   305   2      125.56670124999999                       0             5.939568789
   306   2      121.51616249999999      4.2270012050000005                       0
   307   2      121.51616249999999      4.2270012050000005             5.939568789
   308   2      125.56670124999999                       0                       0
   309   3      126.04952546899997      8.4009968749999988      8.9091749999999994
   310   3      121.99898671899997      4.2797531249999992      2.9696062109999999
   311   3      128.01970751699997      1.6994741149999997     0.37667991900000003
   312   3      123.11369498299999      6.7545282950000001      11.502457658999999
   313   3           123.969168767              2.52752709      11.502457658999999
   314   3      127.16423373299997      5.9262217049999997     0.37667991900000003
   315   3           123.969168767              2.52752709      6.3158923409999996
   316   3      127.16423373299997      5.9262217049999997      5.5628888699999992
   317   3      123.11369498299999      6.7545282950000001      6.3158923409999996
   318   3      128.01970751699997      1.6994741149999997      5.5628888699999992
   319   3      129.13441578099997              4.17399567      8.9091749999999994
   320   3           125.083877031    0.053005534999999986      2.9696062109999999
   321   1      133.82655986899999      3.7182495149999997      2.9696062109999999
   322   1      129.77602111900001     0.50849807499999999      8.9091749999999994
   323   1      137.55953638099999      7.9452507199999998      2.9696062109999999
   324   1           133.508997631              4.73549928      8.9091749999999994
   325   2            133.66777875                       0             5.939568789
   326   2      129.61724000000001      4.2270012050000005                       0
   327   2      129.61724000000001      4.2270012050000005             5.939568789
   328   2            133.66777875                       0                       0
   329   3           134.150602969      8.4009968749999988      8.9091749999999994
   330   3      130.10006421899999      4.2797531249999992      2.9696062109999999
   331   3           136.120785017      1.6994741149999997     0.37667991900000003
   332   3      131.21477248299999      6.7545282950000001      11.502457658999999
   333   3      132.07024626699999              2.52752709      11.502457658999999
   334   3      135.26531123300001      5.9262217049999997     0.37667991900000003
   335   3      132.07024626699999              2.52752709      6.3158923409999996
   336   3      135.26531123300001      5.9262217049999997      5.5628888699999992
   337   3      131.21477248299999      6.7545282950000001      6.3158923409999996
   338   3           136.120785017      1.6994741149999997      5.5628888699999992
   339   3           137.235493281              4.17399567      8.9091749999999994
   340   3      133.18495453099999    0.053005534999999986      2.9696062109999999
   341   1           141.927637369      3.7182495149999997      2.9696062109999999
   342   1      137.87709861899998     0.50849807499999999      8.9091749999999994
   343   1      145.66061388099999      7.9452507199999998      2.9696062109999999
   344   1           141.610075131              4.73549928      8.9091749999999994
   345   2            141.76885625                       0             5.939568789
   346   2      137.71831749999998      4.2270012050000005                       0
   347   2      137.71831749999998      4.2270012050000005             5.939568789
   348   2            141.76885625                       0                       0
   349   3      142.25168046899998      8.4009968749999988      8.9091749999999994
   350   3      138.20114171899999      4.2797531249999992      2.9696062109999999
   351   3      144.22186251700001      1.6994741149999997     0.37667991900000003
   352   3      139.31584998299999      6.7545282950000001      11.502457658999999
   353   3      140.17132376699999              2.52752709      11.502457658999999
   354   3      143.36638873299998      5.9262217049999997     0.37667991900000003
   355   3      140.17132376699999              2.52752709      6.3158923409999996
   356   3      143.36638873299998      5.9262217049999997      5.5628888699999992
   357   3      139.31584998299999      6.7545282950000001      6.3158923409999996
   358   3      144.22186251700001      1.6994741149999997      5.5628888699999992